Box of Si 

  1000 atoms
  1    atom types
  0.0 27.664 xlo xhi 
  0.0 27.664 ylo yhi 
  0.0 27.664 zlo zhi

  Atoms

1 1 -.000399758 18.807599861 6.778068193
2 1 14.726443842 18.660174240 19.605506713
3 1 19.842316488 15.229480269 15.935979788
4 1 17.429619187 8.316503121 17.057532707
5 1 12.916413920 12.858867832 13.386380852
6 1 8.862080084 16.693122593 .735428322
7 1 13.930803468 23.970131179 26.944123944
8 1 24.752665157 22.736680157 12.422709672
9 1 .855996185 26.009292422 6.019930119
10 1 26.767283607 27.541936911 27.057086069
11 1 26.332394738 24.021343026 26.505052386
12 1 24.748258507 12.837023305 12.734079846
13 1 12.017294735 16.259228554 11.538316977
14 1 8.744920190 2.865193202 23.314078838
15 1 22.153739678 12.151546548 22.880673716
16 1 16.004398193 21.622351911 8.005981112
17 1 22.734601735 17.468820252 5.251728135
18 1 5.638991486 9.403270456 26.291742423
19 1 25.014628455 10.321900290 5.103519887
20 1 8.592167680 13.001042821 1.253217174
21 1 25.624334059 18.106728961 1.789778665
22 1 3.096649148 23.621338134 7.117032546
23 1 4.872145439 2.452715056 17.808357575
24 1 10.417352263 14.406556366 23.884397529
25 1 .321396955 14.934201775 19.259550231
26 1 27.319673263 9.464997036 21.237047651
27 1 12.913493241 18.199805415 3.591383898
28 1 22.340213017 19.050684768 9.318355144
29 1 17.652137706 3.216774762 15.580845957
30 1 27.425293834 22.326762691 5.511294388
31 1 4.797173027 21.779035821 14.224918565
32 1 16.716054533 18.857152355 22.873130797
33 1 16.982329424 2.885761572 3.388001591
34 1 9.796400932 16.656877658 12.289703005
35 1 8.216015309 6.106617768 12.583069838
36 1 15.786817145 27.172784802 3.587801240
37 1 10.696018187 6.627843062 20.153593234
38 1 7.019537827 26.968683982 22.895905808
39 1 21.806938124 2.707391339 18.154513153
40 1 10.776455786 .413940587 1.370586683
41 1 10.809584777 7.094975435 27.602890278
42 1 10.632075472 25.460905991 8.681086962
43 1 4.535438682 .727523974 11.486130009
44 1 8.954109639 18.828682018 23.113054573
45 1 1.322219592 13.125373679 26.425197264
46 1 23.563987833 11.009496152 19.577188173
47 1 14.385104612 7.697813362 14.512775825
48 1 6.611453108 4.986760561 25.663984290
49 1 15.024586288 20.400177652 25.895091006
50 1 9.874193625 4.953922851 8.973748907
51 1 1.308021890 18.347064623 1.043975554
52 1 7.504560984 2.432187428 1.412401999
53 1 24.528343749 19.919584495 22.661675033
54 1 .310859630 21.564409579 13.248525767
55 1 6.876700897 21.885728071 11.065111292
56 1 4.649230824 24.519277383 19.487816428
57 1 1.904188880 18.802524683 3.303379571
58 1 5.754476181 11.784178471 9.392812063
59 1 27.211023286 11.781901139 7.424807553
60 1 23.367956555 4.398800807 .251791298
61 1 2.219989697 3.123356838 15.105655285
62 1 18.800332737 .699877813 23.352295724
63 1 8.114658772 11.717823113 9.338256784
64 1 5.361741952 27.657551970 17.301362356
65 1 20.477295581 21.782701535 21.581424001
66 1 7.106071499 5.198067368 3.622417638
67 1 15.994642482 13.229684417 16.017484705
68 1 24.397715102 7.211630350 23.577591395
69 1 .149247933 12.244831468 24.630744154
70 1 7.078884982 3.069910197 18.355769571
71 1 10.439869426 17.393466883 14.600503889
72 1 13.882383986 9.717834585 17.480813305
73 1 13.335308687 21.080163974 1.510476280
74 1 24.463487618 3.355265360 14.924256511
75 1 26.203017893 1.781895380 15.541489991
76 1 2.666610382 10.714293642 10.781856871
77 1 2.630140615 23.556855714 11.141024584
78 1 7.672311576 19.926100633 12.172221540
79 1 3.926353000 16.886702662 7.794254156
80 1 23.667295822 26.504817425 16.498468883
81 1 6.994179421 7.601860804 9.067767715
82 1 18.777595640 3.949853452 21.414205677
83 1 11.077353077 19.029543736 26.219092119
84 1 14.769797198 27.371592362 5.789817640
85 1 .792170444 21.988271301 18.563786143
86 1 5.640524685 18.083493691 2.643786757
87 1 26.835615209 25.166583883 19.872485073
88 1 9.591447111 14.991610447 8.036572126
89 1 25.281389503 3.783876991 24.489999364
90 1 24.086517183 5.748171820 15.842682590
91 1 11.787651326 4.488058860 2.394155868
92 1 .587370362 12.448784267 15.857812254
93 1 19.892526909 .385113432 15.584404435
94 1 17.344856246 9.549286862 20.300626837
95 1 22.758801518 14.169554561 24.092176701
96 1 17.784241152 20.835953448 23.732978670
97 1 10.168646600 19.831958419 19.768973291
98 1 13.007384145 9.506893020 11.381234800
99 1 25.460547075 10.097439491 15.336663725
100 1 27.530261944 6.237176760 26.301125020
101 1 22.766987571 11.640815710 8.055700100
102 1 15.044397189 26.033064094 23.999831538
103 1 9.124948126 14.770279023 16.931484951
104 1 19.045857999 22.946032302 5.088141173
105 1 17.942920996 26.500076718 4.116278446
106 1 3.094993069 25.449559098 5.702704575
107 1 9.879225507 10.058590738 18.263179271
108 1 11.243223773 5.360967602 22.143438765
109 1 23.854620299 1.404944536 2.657079674
110 1 16.112157356 24.500493153 27.635018431
111 1 13.930448424 13.750623055 19.556888709
112 1 1.788276176 15.753919442 7.489498002
113 1 11.167466822 6.959144771 16.588505785
114 1 12.837034947 7.648207613 .965620668
115 1 24.255757992 24.743462453 8.442119794
116 1 17.095449589 14.607957941 5.265189893
117 1 19.854014005 4.824982659 26.017262642
118 1 8.614594939 2.462068145 14.700523622
119 1 18.907902835 19.002160079 13.023415039
120 1 8.840121345 2.188403724 17.026421862
121 1 12.572840830 5.932340083 14.841028543
122 1 18.124507342 15.152454399 27.137095376
123 1 26.940864976 14.276415889 4.633273490
124 1 5.919513517 19.269555010 16.453384673
125 1 14.583694758 6.792086320 21.097108752
126 1 2.648758656 12.296205651 20.899853032
127 1 19.609145920 6.284188890 3.791697150
128 1 11.225366458 13.966231509 16.374614575
129 1 20.920622360 16.690931645 6.578400462
130 1 14.982322628 22.259030984 20.917463595
131 1 5.042288576 11.087610867 7.160955570
132 1 14.882732192 17.260861585 6.222217259
133 1 24.998409964 25.043828558 15.171871531
134 1 16.896197180 22.752928874 22.485342692
135 1 5.306751615 23.185049840 7.640469495
136 1 6.014603792 21.182886560 .199867957
137 1 9.537625840 2.203078603 5.038560192
138 1 2.872957432 18.607385903 27.051299258
139 1 6.268659973 15.018925050 11.323340075
140 1 12.927296792 15.854485144 3.743893329
141 1 9.562260995 24.445007773 25.925479733
142 1 26.650485479 .531038940 13.441272706
143 1 9.170018008 9.709525432 25.607668663
144 1 3.900054565 9.080501159 6.920729778
145 1 16.909662304 23.513425871 11.031537459
146 1 21.581089461 8.585429512 1.068482058
147 1 1.946142456 21.830022341 5.890918499
148 1 11.434641226 27.037602877 10.260767652
149 1 13.736860268 1.888973244 11.943106896
150 1 7.377865182 1.274115044 7.933579273
151 1 .383072792 12.134896525 .629196586
152 1 .112770916 9.163633472 2.427037503
153 1 15.467283053 20.638679654 4.754004575
154 1 8.000891943 25.647279551 3.644629612
155 1 14.091244529 14.473612883 23.447260906
156 1 24.760630976 17.632362393 19.348370942
157 1 2.127360009 24.882172315 1.649409936
158 1 8.804805273 8.422684867 5.382357264
159 1 1.309649621 14.100960597 12.487993509
160 1 2.123314859 6.907247622 26.356946434
161 1 4.353564685 20.652964451 17.775068437
162 1 5.740644327 16.330897866 18.484961879
163 1 5.004687449 1.192252574 13.776763289
164 1 27.333092202 7.146887554 14.350397865
165 1 12.839094502 15.122579094 9.594724584
166 1 19.495974335 23.583779915 26.740642475
167 1 5.869986289 15.322480174 14.987467554
168 1 11.111645965 18.682351911 17.929385332
169 1 14.664353209 18.320515917 9.849703937
170 1 26.626371522 7.261074757 3.025461804
171 1 11.705917706 24.262944372 2.724835834
172 1 20.634831023 15.339267605 12.097513265
173 1 7.321869516 17.915473870 9.285766117
174 1 1.724053887 14.414211102 21.340913201
175 1 16.253950033 9.421826082 6.249227395
176 1 2.385592976 21.110150634 3.623375470
177 1 18.102123206 13.583289928 8.592396999
178 1 25.783671342 23.317752692 22.582121544
179 1 11.529150947 18.205789149 7.922349291
180 1 25.562830019 18.104669660 4.073454976
181 1 8.260807512 25.284487861 18.927831938
182 1 22.617850189 21.039261773 18.777859678
183 1 15.423619254 21.753906808 2.745644707
184 1 21.215864619 26.836369874 3.012587876
185 1 24.921477605 1.455208611 19.280395771
186 1 21.916956064 8.361796522 6.171783173
187 1 .938288617 23.329441954 26.182120727
188 1 12.613070731 18.489894397 22.572351619
189 1 17.522008812 22.589108195 27.432073491
190 1 15.044821239 5.391793970 5.754218182
191 1 14.149688032 25.631899524 12.364801378
192 1 10.819479094 3.108787766 21.990904114
193 1 25.775556066 25.265828731 24.054010667
194 1 21.887115594 .933789043 1.670573268
195 1 10.231669641 3.442910473 26.734104092
196 1 18.050051256 24.728521683 17.487417090
197 1 21.348185218 20.622010027 16.937449544
198 1 16.401974834 25.442474744 12.321992224
199 1 3.335345453 26.949553539 16.351169666
200 1 1.260094848 17.979816738 10.223826450
201 1 3.805137935 16.208388548 26.347098523
202 1 16.039544130 5.767817989 19.412706482
203 1 21.887138934 20.329985055 11.298106770
204 1 3.864139262 24.869526784 3.393282561
205 1 18.323396103 5.699283619 12.340269624
206 1 9.072244502 10.662994677 1.817906142
207 1 26.743249854 5.507268664 21.283990376
208 1 26.131236286 7.867786002 18.328018544
209 1 27.231533220 5.318891882 12.967505616
210 1 12.981592365 8.996361274 25.114699283
211 1 4.716418699 9.304489626 22.338853550
212 1 24.846800600 22.199164830 26.752773691
213 1 .178622343 17.906076628 4.700910947
214 1 23.156365169 16.652560564 20.982074369
215 1 13.169160420 25.954151328 18.110884598
216 1 14.190174367 15.395331113 21.238377840
217 1 26.165715289 15.941748965 1.030838735
218 1 4.848269154 3.185032737 26.314568608
219 1 3.836769485 18.636429333 6.298495308
220 1 20.301297499 10.654967937 23.745087475
221 1 9.891900743 22.385882696 27.140400566
222 1 11.346370057 26.005722107 25.444111995
223 1 1.818410708 12.235043827 13.846842655
224 1 9.967609299 8.949183448 16.216556116
225 1 17.268963963 3.764404833 19.615915743
226 1 16.588715314 11.417761530 12.966978528
227 1 25.508725644 14.374616469 2.649364616
228 1 6.167381139 5.960795365 .095158758
229 1 13.708588636 12.169699388 23.056956413
230 1 26.740667946 20.198097895 21.591699726
231 1 7.628462079 5.673100679 10.282018757
232 1 22.403547153 19.724949731 13.549804562
233 1 4.389645251 12.192336893 2.327668177
234 1 .901119391 18.710466536 21.254829613
235 1 21.372284606 16.067855586 14.150517230
236 1 1.730529212 27.078377760 18.131413253
237 1 17.074000556 24.919692917 23.625302811
238 1 20.140420621 24.013236333 1.324437101
239 1 14.285997611 6.134482447 11.434525595
240 1 22.233350565 25.190219516 17.897957887
241 1 14.704743080 9.979993444 23.647376969
242 1 19.538040902 7.884444637 5.399623017
243 1 5.423193594 18.718746307 23.650948803
244 1 24.887455393 2.730987632 .930303198
245 1 12.074131544 12.869965751 9.635741363
246 1 6.931953530 24.985621822 7.534329176
247 1 19.066922136 5.063643109 7.183937813
248 1 12.129100951 3.703780240 15.842739078
249 1 22.521115069 9.887793556 11.641086992
250 1 .870317801 19.543415313 15.833302575
251 1 16.055833276 14.156374910 26.658662294
252 1 3.107135740 1.155675877 3.698097105
253 1 5.127077822 13.176346362 .247565482
254 1 5.749293774 23.502470544 21.389526865
255 1 11.861096839 6.840016762 25.452113937
256 1 .975732480 15.794042296 5.237391563
257 1 24.596378648 .455988855 8.016155923
258 1 24.649314138 5.268556453 7.745248093
259 1 15.430662980 27.632762248 9.549626363
260 1 23.375880532 18.156106332 1.448517013
261 1 21.178259355 19.971771018 20.334957526
262 1 25.497727543 16.667723798 24.554860595
263 1 24.918016738 1.267732096 26.654567232
264 1 19.948178179 16.882549031 24.124916687
265 1 12.852490459 18.727263118 1.409531407
266 1 17.520060975 21.245617613 6.136959370
267 1 7.539235455 26.694278190 10.726372908
268 1 9.358421778 25.031428148 20.974787850
269 1 6.942533900 19.923318078 8.192919078
270 1 5.450642873 21.493694296 9.315577379
271 1 16.438420737 3.705530164 9.418128046
272 1 4.924028788 10.939305021 11.765258770
273 1 21.511708555 11.879302076 20.489319103
274 1 15.958568735 21.497862313 11.675750026
275 1 .013369236 9.824034570 .146481802
276 1 22.307087282 3.781039486 5.530108383
277 1 17.808458072 7.225140900 19.111913205
278 1 4.855054113 17.158671872 21.928980075
279 1 8.912398994 22.907483405 10.539956312
280 1 20.247597152 24.740236272 16.335991181
281 1 9.632539006 9.684023067 7.192981675
282 1 26.749896163 .866808047 22.271857913
283 1 2.031662580 5.012489002 4.258999849
284 1 20.950414034 1.104213687 26.074836166
285 1 2.202456945 6.114547742 17.482910906
286 1 22.759226126 7.708198363 14.844572278
287 1 15.531338358 12.634946646 11.237926499
288 1 4.273188770 14.853821325 24.352198163
289 1 1.438442940 10.294504258 24.319615362
290 1 21.452533493 25.375067757 21.623751787
291 1 10.527174258 11.239204085 21.608369232
292 1 3.856746860 4.351554586 16.515060342
293 1 2.787394521 20.448375390 21.511440998
294 1 23.511662101 25.691303197 27.244958979
295 1 20.638645050 .976605378 19.463825146
296 1 .058775839 14.031070165 23.048139477
297 1 17.891845349 17.591534008 21.287179222
298 1 14.272887770 15.037562585 .282275096
299 1 .506590125 8.458655886 23.334913629
300 1 4.709910787 27.033002433 .453611009
301 1 19.285982966 25.333373456 8.368907323
302 1 14.638302213 14.651083704 2.523362010
303 1 7.236602488 11.086439021 25.660638907
304 1 17.216387674 4.408512401 1.665700894
305 1 19.897525364 7.066177506 22.734319694
306 1 16.806009285 23.881085366 15.581497278
307 1 4.093842596 9.945460275 2.019434165
308 1 1.593591615 20.230415400 9.473893050
309 1 9.491230398 1.014270661 7.111633879
310 1 25.024556750 1.108516456 5.846843265
311 1 20.172103018 16.948546748 18.280703367
312 1 .977161682 3.016197488 27.585235397
313 1 3.121726693 10.990166216 22.812678059
314 1 23.831305991 22.181644258 22.997736664
315 1 1.282575768 1.689385064 18.620358618
316 1 14.869210060 27.503111883 17.563212323
317 1 13.239443238 21.474157520 5.399466202
318 1 25.695083043 18.945491866 11.960518515
319 1 24.660880166 18.465600828 9.800172515
320 1 4.265933977 24.789834157 12.309358069
321 1 7.756991893 24.365899880 13.583219347
322 1 12.558562970 17.686643041 24.863466159
323 1 2.067484548 9.412024908 5.554109782
324 1 20.305225126 13.014282357 12.304422937
325 1 9.862536904 .777626322 19.898221897
326 1 23.497537632 22.612519448 8.987651649
327 1 8.319661167 26.508661249 12.821601250
328 1 23.515920020 6.151222622 11.555991144
329 1 14.684229141 8.725528603 4.580237738
330 1 21.550093076 22.382574287 7.779626071
331 1 23.759783733 16.247605540 13.956431503
332 1 3.640390012 5.133545875 12.507596255
333 1 22.575389788 18.764197844 21.832695571
334 1 .658531675 3.809399414 21.817724423
335 1 10.969249311 2.307164812 14.251359132
336 1 26.311318946 21.153215633 11.765749849
337 1 19.580428205 20.418889691 11.221366067
338 1 24.814584425 5.172472138 22.628089370
339 1 19.974608909 4.379712907 11.074991429
340 1 19.073721946 19.718013841 7.134824777
341 1 8.847385057 13.117988961 13.440328545
342 1 11.347622198 11.062172411 1.922283706
343 1 18.752441840 19.180809040 27.091732931
344 1 26.932861115 15.886364789 15.538270733
345 1 3.489571741 25.854164795 23.823480055
346 1 10.118880746 22.035979800 19.111020110
347 1 24.077788717 10.909388983 .900981473
348 1 13.482735838 5.098461838 25.125201147
349 1 25.840705757 8.716953124 13.500662958
350 1 26.267771188 9.648274369 6.944020469
351 1 18.275540939 1.080589812 7.312381581
352 1 26.959222427 22.862656510 3.234809900
353 1 7.948581100 .347132738 26.264107598
354 1 12.983702665 2.524951625 8.143138802
355 1 19.697951026 8.950853544 25.543992270
356 1 16.101274977 14.939427850 24.418251264
357 1 19.748133355 12.448998892 10.052243450
358 1 17.999194000 13.312094684 19.241522062
359 1 22.640652789 18.805144430 25.646670580
360 1 26.073057157 25.264404387 9.750531276
361 1 15.107413989 4.368538858 .738991572
362 1 12.356814588 2.997059645 25.714910286
363 1 10.181748556 20.396100904 2.686982170
364 1 26.020175719 24.656375004 11.941541198
365 1 16.215821450 1.134274884 2.090331416
366 1 18.946097943 .730306156 17.813823340
367 1 6.611958124 6.745430813 23.975663218
368 1 6.677586880 15.754706694 21.769183906
369 1 7.916713545 25.755046928 26.893640128
370 1 15.586282851 20.119511698 18.010533251
371 1 10.801658324 27.512509100 23.665781278
372 1 26.983211699 3.744590214 1.461834196
373 1 23.077830930 5.720042237 18.006063730
374 1 14.295080862 12.610906638 3.588800344
375 1 16.797666952 15.461583722 3.028305086
376 1 6.376298472 14.520135768 19.820844264
377 1 26.094300371 20.584504058 6.471238221
378 1 9.110156251 8.403196428 19.826987004
379 1 3.842424208 7.298346605 13.582236055
380 1 27.090722259 12.861888789 9.579190815
381 1 24.714447387 20.026233998 18.549000523
382 1 12.701917187 22.313178533 9.432679077
383 1 13.057628618 23.738678961 21.246168509
384 1 23.938128513 10.567121903 9.836397424
385 1 16.983106023 11.832788213 20.950775815
386 1 14.310459723 20.636097330 16.073942938
387 1 5.851739125 19.720444323 6.154764702
388 1 27.091219948 19.746018469 .782761840
389 1 4.358005866 17.786226916 19.747560326
390 1 .914437193 10.625470419 17.489496190
391 1 11.106387245 22.236269666 1.625733351
392 1 1.444072843 17.628887318 23.350487422
393 1 3.912730409 27.277819906 7.026820848
394 1 26.775936593 21.415462173 15.318243004
395 1 7.340237126 .507547356 14.209341220
396 1 4.669390425 27.181597741 2.943776483
397 1 5.428497269 3.567130553 13.117812947
398 1 5.648288398 15.332281979 7.346868903
399 1 6.264002280 .110041017 20.786005322
400 1 27.113699538 17.899965437 16.732204980
401 1 8.974436131 18.401024018 10.906782513
402 1 7.941225352 1.360356185 10.230206197
403 1 1.580768706 4.004718021 12.888326483
404 1 5.718513582 3.381115014 4.077406009
405 1 7.424941316 8.271493393 13.071119632
406 1 1.087749112 7.545394187 8.681385680
407 1 2.073232396 8.556435577 16.644408898
408 1 25.007399915 2.815144988 10.744024146
409 1 19.176767502 26.631857999 10.377805486
410 1 18.503216433 2.676548129 10.495027708
411 1 7.513797474 5.494628130 17.913941284
412 1 18.333195249 17.211033163 25.875649406
413 1 12.054188436 10.902637674 18.506124449
414 1 5.824360251 24.974564158 .063671081
415 1 14.544710458 21.327839180 23.828786692
416 1 3.046718812 15.635617321 12.617946976
417 1 12.205084937 14.229493108 27.147564785
418 1 22.024315087 .570880537 10.228239517
419 1 22.853891220 .021546521 12.767056873
420 1 10.665529796 26.490443133 12.652249675
421 1 6.672400027 10.544696902 21.865130467
422 1 .613642563 12.453729816 4.159287091
423 1 7.725063662 9.855111118 3.780805998
424 1 19.595302221 23.099000115 8.832025400
425 1 20.717583280 8.490236630 10.688732547
426 1 22.480051794 24.127885556 1.063408060
427 1 17.296704363 20.765754721 26.032014791
428 1 12.738363162 18.472835261 11.171725680
429 1 3.344594199 25.125482685 14.670823151
430 1 5.801771455 13.022768476 4.050683031
431 1 7.364153313 13.066676008 26.949265077
432 1 24.567058028 22.663419007 14.775523269
433 1 22.751468610 22.540368314 11.236455231
434 1 3.534338001 3.393870763 24.285538770
435 1 .672969501 22.892956359 16.398027734
436 1 21.136170565 25.882882791 6.901942467
437 1 8.450992180 24.965378452 9.413080590
438 1 15.912896907 23.805214337 8.808354390
439 1 13.035141922 25.304342119 1.079457382
440 1 20.701184142 13.126711820 16.786310334
441 1 4.304165689 9.165540127 16.765821429
442 1 17.183811595 25.173490493 7.412963340
443 1 17.269085377 15.782632478 8.732248337
444 1 10.126558391 5.029194802 .797504005
445 1 15.335650173 14.942612379 11.962817564
446 1 11.045670682 9.121393705 12.668656204
447 1 4.487709254 22.359649966 3.739923005
448 1 4.962649060 7.112196289 6.039059698
449 1 24.887427246 18.985612870 24.796097156
450 1 6.597788937 27.370280792 4.350263527
451 1 9.379958876 27.447060849 17.690013866
452 1 27.669161258 26.706856573 4.018823784
453 1 19.543794938 9.271683437 .159516862
454 1 2.215060664 22.904012193 .408350981
455 1 6.148625134 10.920663387 19.621759952
456 1 .741805414 21.598268847 1.890774531
457 1 17.340111908 11.968644906 17.381434912
458 1 11.172316029 24.344850377 13.673102725
459 1 4.556193638 15.302439060 .707326911
460 1 22.038668993 4.244948588 12.369389783
461 1 20.052418752 5.572146045 15.458771358
462 1 19.810877576 12.894131919 1.905622758
463 1 4.802613956 11.390222600 15.958849805
464 1 5.186368700 27.544331509 24.286157748
465 1 13.237636673 15.146379128 13.175704542
466 1 23.178964214 22.776632521 25.141277283
467 1 17.120856699 9.297830404 11.991374876
468 1 24.634637770 20.222055863 4.699035823
469 1 21.843127621 2.621687841 22.718362157
470 1 7.772645353 16.422693265 7.518599731
471 1 5.361344992 6.916539754 3.712900074
472 1 25.575807465 11.630105136 25.092062984
473 1 22.949385805 1.630053525 4.920682069
474 1 22.482248002 12.019505033 15.479674480
475 1 27.623955298 21.905719373 22.942064012
476 1 11.476463926 21.303955485 25.830437284
477 1 15.682126554 2.256651958 20.274456224
478 1 7.958153938 11.513401909 18.248957819
479 1 22.767472308 12.290178334 27.270171184
480 1 11.871419373 1.493677298 4.606093817
481 1 12.286143205 4.811153880 8.220936876
482 1 22.366189591 19.783427189 5.175827643
483 1 14.551951339 23.029736653 15.488130886
484 1 6.654606559 14.532693705 23.712207411
485 1 17.902498423 19.159254720 1.666440221
486 1 18.686960793 14.976998997 1.778191557
487 1 24.947679647 24.914170143 6.128255967
488 1 19.501874915 22.266492637 2.904155149
489 1 16.181712769 4.851635319 11.611201623
490 1 9.392212606 17.198043564 16.839540690
491 1 12.243879733 15.845679212 15.254204348
492 1 11.945845234 20.379562008 16.425771393
493 1 27.244642433 15.717378714 13.116420677
494 1 3.166103042 23.046857079 15.660811473
495 1 19.179191643 26.108230319 2.144932146
496 1 17.910974187 22.743970450 18.648646403
497 1 .045173759 16.959785882 8.452578508
498 1 23.537497642 25.121695956 24.971890472
499 1 20.208141562 27.105507111 24.674447679
500 1 24.662622222 15.487778384 15.935758448
501 1 18.826276770 13.377328265 6.344247855
502 1 6.447364493 22.032390374 2.314854856
503 1 18.128242913 14.048975986 23.548540041
504 1 1.772540610 19.114479048 13.642484101
505 1 22.267304686 .286851098 15.181751887
506 1 17.849892267 5.362432076 14.721501858
507 1 16.222998902 10.045615209 18.098212013
508 1 22.084901194 6.805716889 9.757735427
509 1 12.347382378 9.109511974 2.648510336
510 1 13.771863972 27.630192467 13.538859114
511 1 3.010700016 15.606872991 4.187102585
512 1 2.503475624 16.328546527 16.650487615
513 1 8.686033662 8.080326926 23.843024414
514 1 8.014242319 16.881055751 26.237097772
515 1 17.867725479 26.595257458 22.157733180
516 1 12.731997269 5.651627631 6.080785121
517 1 13.193767897 23.767504259 4.616922854
518 1 7.101875019 20.178728586 22.896331932
519 1 1.384943672 10.168469553 12.731453361
520 1 9.969491691 5.581896439 18.092223953
521 1 18.666661557 25.414149448 25.415110978
522 1 23.496144213 2.108427657 9.181201484
523 1 3.947252821 5.548347696 10.172164990
524 1 3.048793761 15.964943624 22.671238953
525 1 4.199248161 12.160499990 13.743899518
526 1 16.361832028 17.295970460 24.650708385
527 1 2.471367007 26.570244571 .021289947
528 1 12.871794180 26.037188243 20.570388669
529 1 20.805561543 18.320426306 14.446207943
530 1 4.543792459 22.894687835 27.050842921
531 1 4.692567143 3.387377005 6.172142224
532 1 14.853104584 8.248149353 12.259216620
533 1 7.381271036 7.904281618 18.108594118
534 1 6.524937305 3.432205536 7.583121933
535 1 4.874634271 8.191541163 24.360209757
536 1 14.224890404 3.461898090 16.818510877
537 1 3.267839309 3.696264003 .453818315
538 1 23.700074995 6.762979898 3.106223888
539 1 18.976666004 21.196746331 17.058980204
540 1 20.508624372 23.028387052 14.528317786
541 1 23.651994085 3.734432152 19.354247076
542 1 1.207513548 23.859657974 20.093531209
543 1 12.923980213 23.019922523 23.553172883
544 1 13.380639680 23.634354530 13.391960264
545 1 2.601420673 25.701333160 19.904720604
546 1 3.119478884 1.602947512 6.055375822
547 1 24.577220103 11.656224844 22.909545082
548 1 8.016170347 18.945418525 19.873196825
549 1 10.873165274 19.283001041 9.924084257
550 1 4.737717695 22.272248257 24.704995106
551 1 3.371655302 12.718563829 6.854012522
552 1 23.656970600 2.526562161 12.681933806
553 1 17.501456388 6.395066313 2.729720172
554 1 18.458329085 3.075530771 17.744144315
555 1 17.571999168 1.789169345 25.252175917
556 1 6.753027238 3.300222233 22.147725980
557 1 19.041640233 1.633957504 27.354906207
558 1 17.589781670 8.048052336 1.094402412
559 1 23.143639953 23.291539133 19.290332481
560 1 22.928243117 25.305598682 2.945586660
561 1 27.663863145 7.426618883 20.127787106
562 1 7.767400542 4.782515035 1.439828449
563 1 .635334722 23.827918077 12.494362865
564 1 20.275846281 16.716907876 2.166748575
565 1 7.576320987 11.551393363 12.137272031
566 1 27.130534779 24.228419862 6.621797411
567 1 26.655325764 13.042877536 19.846658826
568 1 .922978216 2.149255115 7.070555586
569 1 17.427726819 3.252248578 7.212197498
570 1 27.273120522 24.980017304 15.929812159
571 1 20.954136812 22.039341099 25.626181167
572 1 13.379142673 15.222899549 5.977855493
573 1 17.059890935 20.491064010 13.570520784
574 1 25.446794200 .274247563 17.287639183
575 1 2.570395390 27.034600548 21.985221641
576 1 8.963336355 18.858279619 25.465465728
577 1 6.444251747 24.439524575 2.259123957
578 1 13.190812637 7.479435910 17.798737330
579 1 14.625721882 19.673499931 21.875921062
580 1 15.914345852 8.499006248 22.000580661
581 1 27.201281942 21.541498670 9.618190850
582 1 21.252255713 18.750310029 23.763497886
583 1 23.443686200 23.793143218 4.665024054
584 1 6.662694720 21.097548702 20.688155295
585 1 24.451219528 15.955640971 10.158694713
586 1 20.613771089 6.834118390 24.962232732
587 1 14.646557927 2.122095449 9.704939308
588 1 25.946804707 6.056133696 11.101457836
589 1 13.649371197 9.834118680 15.245644381
590 1 17.185288393 4.667774517 23.061278225
591 1 21.409488805 20.177459270 7.314094762
592 1 18.684643343 16.809963656 12.089652571
593 1 4.901302161 14.374564950 13.148538797
594 1 11.014564079 14.737312144 3.097197406
595 1 20.937798711 20.332294609 3.271306218
596 1 17.894523245 27.625721477 .765889538
597 1 25.498592259 26.823032485 4.745598809
598 1 .021357329 4.945703764 17.434334799
599 1 7.317059634 4.454169201 14.162812575
600 1 8.895119155 4.394706938 25.061618746
601 1 7.464396645 14.266952897 2.997926891
602 1 11.737272716 15.917291348 7.762450458
603 1 12.018700196 1.880686077 23.653335673
604 1 17.556242188 4.167787706 25.307032517
605 1 13.843938479 6.384907092 9.190472739
606 1 3.536138227 12.255125664 26.497892729
607 1 17.574747849 1.660588240 12.361324937
608 1 27.296928719 17.267347609 19.273084901
609 1 27.628351954 26.694147905 25.015924781
610 1 16.222481684 6.795261100 15.749743260
611 1 25.846786321 26.440106914 21.677469379
612 1 4.674456162 12.724242510 19.602258738
613 1 19.531221985 9.148191265 16.395336568
614 1 25.411338233 23.336611271 20.134618091
615 1 11.478407759 26.818462993 4.969487657
616 1 17.999003246 10.450692964 9.984211433
617 1 2.015716395 19.387150033 24.960899428
618 1 13.629538029 26.212693439 10.150819204
619 1 9.022628835 20.817528121 7.326560742
620 1 2.011414993 19.917131617 7.146475431
621 1 10.761679924 19.891233966 22.153331415
622 1 6.912643590 22.867147558 16.880093887
623 1 11.958868603 9.533630344 7.472699472
624 1 5.630876850 .854155664 26.443699386
625 1 16.866644215 15.923934858 13.386428428
626 1 15.207521253 11.500977877 7.203425357
627 1 22.700497072 3.915030609 7.863674972
628 1 5.852579479 4.311764872 9.616183621
629 1 16.004188043 16.724123267 20.245305362
630 1 10.684968614 22.059552645 23.270740753
631 1 16.168120974 17.683876250 2.255626347
632 1 20.427037869 13.513224447 19.210507935
633 1 24.371045223 6.390066843 .803906099
634 1 .782677042 14.653550136 16.864842520
635 1 1.262895120 2.887934508 23.949236446
636 1 18.266112439 22.098400311 14.965334704
637 1 16.961739780 26.441270772 26.678993024
638 1 5.817052848 17.748465127 25.901019230
639 1 9.072203710 8.828263815 .114498921
640 1 23.670322262 22.089177711 1.191567423
641 1 27.507502042 3.944547219 25.552768730
642 1 11.075930327 1.381207161 8.895715698
643 1 9.119186269 15.115081492 4.449340251
644 1 4.640048984 20.132849243 19.998725766
645 1 1.107941009 2.542964981 10.986802156
646 1 14.499152590 27.123030150 21.900551965
647 1 19.292515687 13.730762630 25.600464721
648 1 21.315740982 15.773584608 27.495715477
649 1 12.317855709 15.275194173 24.916042773
650 1 21.533678913 18.238997099 16.802517048
651 1 20.102517214 6.467803861 19.120001124
652 1 26.936097658 9.755256936 11.771347590
653 1 5.271029527 14.060722263 9.365427632
654 1 25.185220549 12.052305713 18.309659121
655 1 8.099311455 20.888372492 3.559402092
656 1 2.013712836 12.770940860 2.298402267
657 1 11.842539488 13.037145637 5.980464899
658 1 6.616305024 16.124147923 1.776176613
659 1 26.227263778 20.356877777 26.256147997
660 1 7.892092117 22.700394607 18.998008946
661 1 16.217241925 7.555142665 26.847245763
662 1 19.411719548 18.544989950 3.361610499
663 1 .810059481 16.120311463 .792805116
664 1 1.134223993 25.398521487 14.112004871
665 1 17.190880653 10.037413715 2.497853718
666 1 15.000108856 14.601298470 17.608382233
667 1 11.953418138 12.610403848 3.619193849
668 1 13.054147340 19.843727211 12.983525782
669 1 21.005576562 8.983239380 22.117771942
670 1 20.808140187 4.995302331 8.908387602
671 1 23.975784445 7.514481897 19.244597630
672 1 8.476420867 11.746133974 6.886086075
673 1 7.692622243 13.772304469 15.344087589
674 1 16.393490500 27.309643384 7.475621823
675 1 1.576334974 12.883553617 10.425238445
676 1 25.702736950 11.614919533 10.983047988
677 1 8.271333654 4.948785102 7.089142847
678 1 20.316340846 4.655247751 17.651552098
679 1 10.474604954 18.617865232 .915197335
680 1 1.985277497 22.662493212 21.959316842
681 1 3.290499589 2.535389927 19.610730390
682 1 12.694831374 8.104693513 5.782792936
683 1 19.916350000 1.930019449 21.649097457
684 1 15.360872856 23.835920500 3.764802943