1000
Lattice=" 27.664000 .000000 .000000 .000000 27.664000 .000000 .000000 .000000 27.664000 " properties=species:I:1:pos:R:3:forces:R:3:id:I:1 energy=-3031.802695132
 1   27.656464280 18.794697235 6.782407315    .000294209 .000291149 -.000274088    1
 1   14.728043247 18.662808846 19.612877257    .000259629 -.000264062 -.000208197    2
 1   19.850651529 15.233528479 15.944351904    -.000099613 -.000204206 -.000215254    3
 1   17.442374266 8.322432511 17.072273806    -.000532684 -.000121955 .000007609    4
 1   12.922033243 12.865683601 13.395093797    -.000738536 .000243835 -.000243162    5
 1   8.861191325 16.690416014 .738741201    .000237362 -.000372463 -.000189183    6
 1   13.932016280 23.972674716 26.950230356    -.000175456 -.000315482 -.000087120    7
 1   24.760736447 22.741870685 12.428389519    .000420913 .000189270 .000028151    8
 1   .833040079 25.992739413 6.021898762    -.000408635 .000933588 .000430951    9
 1   26.761698407 27.539125547 27.057519039    .000254504 -.000028198 .000375864    10
 1   26.329989386 24.020839181 26.503509689    -.000339654 .000007004 .000130956    11
 1   24.754246074 12.832663085 12.736400699    -.000226179 .000650496 .000028380    12
 1   12.016785024 16.263048919 11.545335281    -.000245803 .000374425 -.000372585    13
 1   8.752441822 2.874613569 23.326351472    .000089562 -.000266466 -.000091199    14
 1   22.157457075 12.153377447 22.883703516    -.000398935 -.000006966 .000288292    15
 1   15.988937529 21.640510736 8.021496276    .001276011 -.000839907 -.000504004    16
 1   22.727307630 17.470163107 5.260320437    .000474984 .000036151 -.000119730    17
 1   5.636850501 9.410463468 26.299126071    -.000082579 -.000233448 .000661974    18
 1   25.019758722 10.312522799 5.114685638    .000119105 -.000353139 .000233994    19
 1   8.592216688 12.996806903 1.260232017    .000114986 -.000526610 .000254675    20
 1   25.621183659 18.103502013 1.793433447    -.000138248 -.000152798 .000072900    21
 1   3.083097628 23.593988454 7.105168175    -.000743317 -.000253517 -.001294854    22
 1   4.883467418 2.461442748 17.824457940    -.000809569 .001097307 .001351246    23
 1   10.417804154 14.412876230 23.892288424    .000146428 -.000071616 .000029277    24
 1   .323677448 14.936544107 19.260131494    -.000278522 .000537981 -.000043385    25
 1   27.324777386 9.466044124 21.239699910    -.000556803 .000852933 .000511277    26
 1   12.915434130 18.201672875 3.596364438    .000355850 -.000357807 -.000214586    27
 1   22.337058524 19.055033758 9.325740998    .000526780 .000148267 -.000132511    28
 1   17.649112983 3.218906401 15.581269423    -.000850895 .000009156 -.000205648    29
 1   27.412582184 22.314332420 5.512201756    .000500010 -.000046204 -.000333458    30
 1   4.802026582 21.812667092 14.197135103    -.000181913 .001311845 -.000839319    31
 1   16.718825507 18.860820745 22.879575236    .000342512 -.000168812 -.000192033    32
 1   16.985893208 2.895827087 3.390635329    -.000026627 -.000477210 -.000266495    33
 1   9.794448682 16.660210799 12.294648449    -.000300114 .001172619 -.000618249    34
 1   8.259793119 6.142538476 12.589950483    -.001127225 .001774510 -.000571918    35
 1   15.783177666 27.180299611 3.592672586    .000315540 -.000532941 -.000448736    36
 1   10.704293863 6.649591242 20.183901481    -.000777918 .000392623 .000236481    37
 1   7.017668696 26.970987872 22.914526754    -.000124405 -.000495335 -.000086308    38
 1   21.812501647 2.711146265 18.153992539    -.000448561 .000291288 .000226269    39
 1   10.761063806 .421995672 1.363848782    .000123786 -.000388108 -.000642545    40
 1   10.793092011 7.089283916 27.616412148    .000077951 -.000584040 .000291141    41
 1   10.657703841 25.510871724 8.714391465    .001445070 -.002768127 -.001104521    42
 1   4.731831814 .869398463 11.378524976    .001924230 .005503835 -.001044204    43
 1   8.951249122 18.830152141 23.115589073    .000182403 .000168477 -.000600361    44
 1   1.318544431 13.123606098 26.430870475    -.000347666 -.000313154 .000178218    45
 1   23.571576459 11.010084887 19.579741280    -.000669922 .000295262 .000422349    46
 1   14.402085893 7.717226242 14.538525065    -.001271735 .000072177 .000172718    47
 1   6.606113198 5.010684244 25.660697728    .000141781 -.000254229 .000310616    48
 1   15.026297682 20.402166700 25.903228684    .000320710 -.000166756 -.000380705    49
 1   9.858819642 4.714483817 8.987605820    -.002101802 -.006352739 .003932263    50
 1   1.303931587 18.339802852 1.043505647    -.000150454 -.000186127 -.000312031    51
 1   7.321660609 2.379190890 1.231526915    .000658837 -.000576415 .000657322    52
 1   24.532647978 19.923438383 22.661120647    -.000086660 -.000069882 -.000090178    53
 1   .331724677 21.582234562 13.235978425    .000077059 .000764257 .000290530    54
 1   6.870636736 21.890982047 11.043774724    .000000502 .001818716 -.001021564    55
 1   4.655893008 24.530537531 19.485316156    .000097824 .000243270 -.000722411    56
 1   1.897820110 18.788847777 3.303716500    .000020511 -.000007326 -.000288380    57
 1   5.768858052 11.774182730 9.395844302    -.000414564 -.000045734 .000250414    58
 1   27.217069977 11.768238439 7.431455851    .000202038 .000000689 .000122218    59
 1   23.368295424 4.399639761 .257421795    .000125665 -.000009014 .000640658    60
 1   2.256019535 3.128503457 15.105167461    -.000341604 .000707395 .000634133    61
 1   18.804685023 .704230443 23.359508312    .000047543 -.000061203 -.000169468    62
 1   8.129403992 11.715563188 9.321800921    .000071434 .000301554 .000195483    63
 1   5.383000894 .007680261 17.300435460    -.000073937 .001187343 -.000593093    64
 1   20.481492575 21.787435039 21.586113966    .000128620 -.000049650 -.000115310    65
 1   7.068201651 5.164250375 3.595565428    .000326838 .000772413 .000239226    66
 1   16.001519204 13.235458185 16.026906232    -.000205358 -.000254810 -.000057351    67
 1   24.401982518 7.210946308 23.581288390    -.000394755 .000155431 .000580451    68
 1   .147628935 12.245940429 24.634466039    -.000268356 -.000189398 .000155265    69
 1   7.080528051 3.079582670 18.390660446    -.000363402 .000711036 .001010804    70
 1   10.436692760 17.400338768 14.605548466    -.000264592 .001454876 -.000783617    71
 1   13.890030116 9.732310228 17.497651039    -.000861799 .000088578 .000156483    72
 1   13.335148765 21.080637430 1.516749238    .000449619 -.000028624 -.000132122    73
 1   24.480555526 3.350681241 14.927068532    -.001251136 .000948660 .000473048    74
 1   26.230546089 1.782457323 15.536799247    -.001161810 .001318074 .001181076    75
 1   2.675920692 10.694510888 10.782798736    .000036499 .000619368 .000482729    76
 1   2.647907392 23.575947128 11.124519142    -.000106536 .000263708 .000194592    77
 1   7.663190550 19.934130360 12.164241890    .000555602 .001909650 -.001402146    78
 1   3.922592245 16.871488229 7.797290019    -.000068635 .000025934 -.000392318    79
 1   23.682946948 26.507124923 16.498171025    -.000280392 .000249232 .000242604    80
 1   6.997980267 7.637988227 9.024030659    -.001015272 .003261618 -.001473466    81
 1   18.786406717 3.953669450 21.422504636    -.000227671 -.000145314 -.000204589    82
 1   11.076774349 19.028432040 26.222523393    .000008692 -.000326074 -.000316630    83
 1   14.756596852 27.395670675 5.785982499    .001006348 -.000360973 -.000279929    84
 1   .801466562 22.005737892 18.553728398    .000343632 .000258041 -.000081314    85
 1   5.633554191 18.070514606 2.641141656    .000153088 -.000531144 -.000075517    86
 1   26.847177558 25.174865392 19.867494119    .000120020 .000374673 .000080779    87
 1   9.594451636 14.987425026 8.038353448    -.000339132 -.000041034 -.000405578    88
 1   25.284231496 3.782923113 24.493933318    -.000239953 .000106433 .000476277    89
 1   24.099900860 5.744439800 15.845944633    -.000840624 .000836824 .000522676    90
 1   11.763102828 4.487694615 2.404027631    -.000619139 -.000670473 .000344417    91
 1   .594900297 12.447789274 15.858982350    -.000634821 .000471219 -.000217049    92
 1   19.897919723 .390540114 15.588879923    -.000412260 -.000036479 .000070420    93
 1   17.355634353 9.558625020 20.311928338    -.000362263 -.000252088 -.000082101    94
 1   22.760003004 14.171074917 24.095763173    -.000103491 .000027056 .000102151    95
 1   17.786103044 20.839916435 23.739214237    .000303852 -.000142949 -.000242160    96
 1   10.164818656 19.831413052 19.777105748    .000196689 .000166275 -.000867987    97
 1   13.021936281 9.521799662 11.389024141    -.000055298 .000514715 .000066963    98
 1   25.470191821 10.093731524 15.338109300    -.000650481 .000698047 .000415430    99
 1   27.528333996 6.237337008 26.306439210    -.000112781 -.000047863 .000625087    100
 1   22.772233365 11.637394898 8.065185797    -.000029093 -.000116612 -.000023019    101
 1   15.048326476 26.035487387 24.009206188    .000373548 -.000103790 -.000056117    102
 1   9.126802594 14.776966531 16.936187228    -.000070651 .000633923 -.000566873    103
 1   19.031751091 22.954440126 5.101135473    .000745651 -.000337245 -.000075804    104
 1   17.934730897 26.504893168 4.128537578    .000304190 -.000159409 -.000275890    105
 1   3.056293695 25.407593628 5.682724530    -.000993334 .000234857 -.000378988    106
 1   9.883786720 10.075322725 18.269612392    -.001162692 .000507345 .000263311    107
 1   11.251774783 5.372848488 22.163154410    -.000028726 .000397243 -.000004818    108
 1   23.848716253 1.404868957 2.666212517    .000256623 .000028672 .000464546    109
 1   16.112454433 24.504511257 27.643178244    .000010836 -.000344596 -.000362329    110
 1   13.935033026 13.757754403 19.566201094    -.000046908 -.000162330 -.000155935    111
 1   1.786920518 15.738395608 7.495393290    .000099890 .000058939 .000023667    112
 1   11.168031248 6.975039228 16.626216301    -.000799869 .000476714 .000237800    113
 1   12.827232614 7.645313313 .973521714    .000127266 -.000767624 .000380251    114
 1   24.248218189 24.742575240 8.450355474    .000915661 .000384442 .000383200    115
 1   17.098461200 14.612343572 5.272758873    .000019528 -.000385223 .000149975    116
 1   19.858475174 4.827610691 26.024585346    -.000052447 -.000099087 .000149300    117
 1   8.635766593 2.487183780 14.756012311    .000803589 .001295380 .000474920    118
 1   18.907574488 19.008239737 13.032047153    .000143647 -.000164281 -.000013985    119
 1   8.841386875 2.194282909 17.074507820    -.000345185 .001073488 .000775580    120
 1   12.593565979 5.958942988 14.894709147    -.001184377 -.000042744 .000081634    121
 1   18.126458355 15.156010703 27.144309989    .000172168 -.000314592 -.000126864    122
 1   26.943449883 14.264029130 4.639922492    .000127227 -.000367872 -.000029507    123
 1   5.916572406 19.282141677 16.448729065    .001435097 .001295326 -.000972149    124
 1   14.593707846 6.802151903 21.116938642    -.000249324 .000165484 .000065256    125
 1   2.650252652 12.301051342 20.902519929    -.000377706 .000373599 .000111075    126
 1   19.608465628 6.284298677 3.801013997    -.000104093 -.000109471 .000129155    127
 1   11.227851192 13.972034172 16.381287031    -.000142314 .000674340 -.000515434    128
 1   20.915271660 16.692835943 6.586971056    .000500979 -.000203515 -.000046800    129
 1   14.987350237 22.260067544 20.928333418    .000186711 -.000191412 -.000451036    130
 1   5.050098552 11.067060569 7.167985977    .000046187 -.000719145 .000355134    131
 1   14.882056141 17.265763879 6.230156990    .000163487 -.000508114 -.000195976    132
 1   25.019229497 25.049259696 15.170921475    -.000291609 .000057323 .000466566    133
 1   16.901243366 22.756940332 22.491818060    .000148375 -.000136261 -.000225622    134
 1   5.294058303 23.149679915 7.610155979    -.001364191 -.002119180 -.001640904    135
 1   6.007360025 21.169832306 .189415440    .000134273 -.000590774 -.000794691    136
 1   9.366419462 2.177435000 4.782824381    .001164652 -.000372137 .000466106    137
 1   2.868208440 18.601898602 27.049799973    .000069287 -.000633426 -.000373693    138
 1   6.269910571 15.016700946 11.323732633    .000063816 .000744704 -.000246808    139
 1   12.928426390 15.857352225 3.749089664    .000307063 -.000484505 -.000127599    140
 1   9.566934304 24.435956302 25.926566653    .000295285 -.000430122 -.000374547    141
 1   26.698580553 .529306297 13.439943532    -.000431556 .001037894 .001653785    142
 1   9.169439084 9.716163520 25.617992417    -.000058698 -.000034407 .000438087    143
 1   3.915161587 9.050210510 6.931241012    -.000065062 -.000805829 .000699538    144
 1   16.897027153 23.525400751 11.044262169    .001062190 -.000580381 -.000068018    145
 1   21.583065629 8.584662548 1.077312121    -.000045087 -.000253288 .000263074    146
 1   1.931710358 21.809271790 5.883865924    .000257193 -.000344621 -.001416005    147
 1   11.310531199 26.966605181 10.589592607    .001705547 -.003901883 -.000278250    148
 1   13.651864359 1.900777029 11.978318945    -.000864823 -.000711620 -.000258550    149
 1   7.262478879 .963448414 8.081964977    -.000359038 -.003793008 .002240534    150
 1   .380272716 12.130272045 .635452706    -.000216654 -.000438292 .000185535    151
 1   .112225060 9.156010404 2.435893719    .000501358 -.000414310 .000574291    152
 1   15.461199106 20.645656595 4.764366381    .000343416 -.000365133 -.000328845    153
 1   8.000470654 25.619127697 3.609256069    .001105257 -.002527845 -.002384626    154
 1   14.093544980 14.480118608 23.455863784    .000192457 -.000149532 -.000098200    155
 1   24.764698476 17.637545279 19.350386596    -.000229023 .000244114 .000031979    156
 1   2.106921397 24.870428168 1.640511226    .000191608 -.000359428 -.000937993    157
 1   8.790205242 8.382636471 5.395766189    -.001752092 -.002497948 .001359174    158
 1   1.313607693 14.095169327 12.487324654    .000198865 .000347768 -.000158355    159
 1   2.119111992 6.910092926 26.361396254    -.000088623 -.000074333 .000364045    160
 1   4.350556964 20.667005337 17.768462297    .000743473 .000349943 -.001028661    161
 1   5.740426574 16.340054631 18.484992088    .000354697 .001231043 -.000484043    162
 1   5.067069545 1.253664742 13.699516516    -.000225413 -.002901587 .001414429    163
 1   27.351936573 7.140877142 14.353130158    .000396404 .000353176 .000956521    164
 1   12.841019457 15.127303689 9.601727094    -.000073649 .000031892 -.000256741    165
 1   19.494952290 23.586263452 26.748003022    .000499359 -.000048789 -.000025063    166
 1   5.872273988 15.327171998 14.986862305    .000016043 .000921055 -.000272739    167
 1   11.109741865 18.682928222 17.937436792    .000220659 .000261992 -.000794496    168
 1   14.661218662 18.328135567 9.858385180    .000143857 -.000210137 -.000318293    169
 1   26.629489395 7.251280765 3.037698278    .000399522 -.000253888 .000759778    170
 1   11.704671655 24.260578774 2.720752951    .000236991 -.000706093 -.000571801    171
 1   20.636916629 15.342056971 12.103841999    .000091138 .000038931 -.000085574    172
 1   7.321735251 17.907787433 9.286998554    .000216391 .001065451 -.000684335    173
 1   1.723900420 14.417474363 21.343140208    -.000474944 .000260951 .000167024    174
 1   16.248069883 9.425773882 6.251625560    -.001040777 -.000477376 -.000046844    175
 1   2.372247879 21.093068698 3.619065894    .000246511 -.000039296 -.000791480    176
 1   18.104381677 13.587223765 8.601331112    -.000149794 -.000309811 -.000109520    177
 1   25.786164089 23.323546669 22.579963424    -.000214548 -.000099335 -.000154713    178
 1   11.528225628 18.204360686 7.927352791    -.000087175 -.000000914 -.000686174    179
 1   25.557086962 18.099189432 4.077391090    -.000130361 .000161357 .000107665    180
 1   8.259428918 25.294421114 18.925733967    -.000230145 .000955437 -.001571009    181
 1   22.621836290 21.045839175 18.781988721    .000051950 .000136744 -.000036298    182
 1   15.419568492 21.759235556 2.754918618    .000402959 -.000231276 -.000211825    183
 1   21.207360148 26.838826106 3.024104009    .000321898 .000085787 .000411690    184
 1   24.933894963 1.456753594 19.277590981    -.000499249 .000299363 .000476415    185
 1   21.920378139 8.358611942 6.180262105    -.000052816 -.000113404 .000180572    186
 1   .934737503 23.328625020 26.177095298    -.000150816 .000029491 .000201091    187
 1   12.614129795 18.493234603 22.579441447    .000219562 -.000048055 -.000323072    188
 1   17.520305655 22.591865650 27.439871469    .000402622 -.000092579 -.000208248    189
 1   15.048121581 5.412878191 5.758675738    .000008736 -.000351395 -.000236238    190
 1   14.147362524 25.632444800 12.406978504    .000882458 -.000306605 -.000182198    191
 1   10.829668708 3.121457609 22.011266680    .000237328 .000329834 .000218261    192
 1   25.776647141 25.268235283 24.055661513    -.000286902 .000123842 -.000387260    193
 1   21.881652044 .933878058 1.678709733    .000311339 .000123216 .000448782    194
 1   10.223131660 3.450322868 26.737074023    -.000066996 -.001051455 .000258194    195
 1   18.055943691 24.732803350 17.496654156    .000011199 -.000314566 .000155616    196
 1   21.352938169 20.627103696 16.941200065    .000114592 .000103470 -.000103753    197
 1   16.396537551 25.452751867 12.339965263    .000998865 -.000608642 -.000084004    198
 1   3.367369169 26.974202721 16.327192670    -.000187610 .000234445 .000369977    199
 1   1.261106737 17.978716629 10.226085824    .000576508 .000465801 -.000474203    200
 1   3.800727505 16.204913014 26.349583524    -.000430877 -.000460881 -.000072832    201
 1   16.051634076 5.777870943 19.433331012    -.000444143 .000068518 -.000009516    202
 1   21.884183873 20.336103570 11.304799144    .000675090 .000190608 -.000098518    203
 1   3.833830824 24.831004558 3.384403788    -.001186266 -.000333061 -.000114337    204
 1   18.318649517 5.693942606 12.348310242    -.000752989 .000157342 .000034927    205
 1   9.069074832 10.657750841 1.831772275    -.000098029 -.000592469 .000793381    206
 1   26.749370564 5.506376970 21.285597690    -.000440833 .000593161 .000949797    207
 1   26.142897003 7.864463482 18.329181988    -.000813132 .001083319 .000661115    208
 1   27.262796607 5.312292115 12.969580781    .001217547 .001298415 -.000155379    209
 1   12.980536737 8.999202000 25.124534792    .000104254 -.000013982 .000239182    210
 1   4.716898091 9.313370741 22.344059813    .000038962 .000512232 .000509490    211
 1   24.844783471 22.198789572 26.755130810    -.000252450 -.000109008 .000084389    212
 1   .173213910 17.894110291 4.704300757    -.000012764 -.000056998 -.000095985    213
 1   23.159928903 16.656373039 20.984369081    -.000061052 -.000125931 -.000012433    214
 1   13.180016902 25.947487142 18.139013664    -.000147225 -.000134401 -.000255996    215
 1   14.193034074 15.401587334 21.247064044    .000164112 -.000121289 -.000144473    216
 1   26.163010887 15.937775178 1.036280533    -.000211902 -.000207752 .000067059    217
 1   4.836342865 3.218340016 26.335103773    .000148774 -.000190345 .000086232    218
 1   3.830203936 18.619554968 6.299653203    .000078015 -.000003113 -.000383519    219
 1   20.306360723 10.657638272 23.751067947    -.000152881 -.000208920 .000197678    220
 1   9.890558788 22.379398024 27.142539387    .000297891 -.000254374 -.000144216    221
 1   11.347883291 26.004787003 25.448256876    .000320827 -.000339547 -.000050262    222
 1   1.825457709 12.230259926 13.847207784    -.000363496 .000140551 .000014573    223
 1   9.967780659 8.958497853 16.225962212    -.001482895 .000317524 .000430061    224
 1   17.275906018 3.769478510 19.626337287    -.000417886 -.000024208 -.000140513    225
 1   16.596265504 11.425215857 12.975549927    -.000692145 -.000287188 .000015171    226
 1   25.509028922 14.370454295 2.657141429    .000025759 -.000322992 .000050293    227
 1   6.144746874 5.980005590 .091394565    .000779675 -.001390873 .001018265    228
 1   13.712724105 12.176597808 23.069541909    .000164354 -.000170502 .000123008    229
 1   26.745002682 20.205734172 21.587476037    -.000060672 -.000018990 -.000277097    230
 1   7.662743618 5.768492795 10.266200141    .000613333 .003750946 -.001777810    231
 1   22.406333550 19.729847522 13.554130497    .000278539 .000053224 -.000113658    232
 1   4.389789895 12.186404997 2.333463792    .000015567 -.000443454 .000370003    233
 1   .903661366 18.716525247 21.253566383    .000120481 .000101828 -.000296585    234
 1   21.376013333 16.072179196 14.155604096    .000114691 .000081711 -.000082786    235
 1   1.755879251 27.088143847 18.118666181    -.000436633 .000870418 .000202153    236
 1   17.077714793 24.922736581 23.633768338    .000419351 -.000011077 -.000420235    237
 1   20.133833464 24.015995961 1.334481441    .000429922 -.000018129 .000003593    238
 1   14.295229297 6.149281933 11.469164986    -.000982539 -.000808444 .000004209    239
 1   22.243120599 25.195906258 17.898112537    -.000068612 -.000066315 .000102504    240
 1   14.707812047 9.985817877 23.659283677    .000022415 -.000194690 .000078455    241
 1   19.539865115 7.887504306 5.405150969    -.000298115 -.000166787 .000253438    242
 1   5.421351754 18.720695749 23.650490393    .000104104 .000006287 -.000516017    243
 1   24.883198299 2.729314098 .937754025    .000068634 -.000014284 .000636267    244
 1   12.079423221 12.873859620 9.640119632    -.000391980 .000109760 -.000252250    245
 1   6.931605112 24.918994118 7.456054084    -.001408096 -.001210919 -.003820082    246
 1   19.069502662 5.057337979 7.200906989    -.000454133 -.000363223 -.000247871    247
 1   12.145607598 3.737616182 15.928844223    -.000127994 .000521699 .001019327    248
 1   22.529295562 9.880949562 11.647370770    -.000245010 .000382914 .000090966    249
 1   .859118099 19.551254182 15.827511964    .000490340 .000208058 -.000253633    250
 1   16.057781075 14.159302989 26.665792420    .000202894 -.000359202 -.000162324    251
 1   3.087781770 1.129451716 3.688161017    -.000317308 .000603019 .000248941    252
 1   5.125174422 13.173115160 .253457281    -.000124641 -.000367540 .000293733    253
 1   5.750989784 23.511205151 21.390015244    -.000213468 .000098350 -.000595637    254
 1   11.857410059 6.843306127 25.466956387    .000221269 .000002175 .000124784    255
 1   .974226551 15.782838614 5.243211641    -.000028467 -.000178513 .000035478    256
 1   24.599144588 .449968590 8.029079689    .000529904 .000672096 .000527614    257
 1   24.658635401 5.258505736 7.757616893    .000341456 .000093101 .000931966    258
 1   15.391003773 27.659047482 9.570298280    .000705724 -.001111726 -.000269828    259
 1   23.372565741 18.157256880 1.454004372    .000008921 -.000147523 -.000107106    260
 1   21.181703892 19.976646240 20.338567938    .000133433 .000007101 -.000065362    261
 1   25.497754538 16.668327393 24.558158585    -.000156329 -.000063095 .000030048    262
 1   24.915179467 1.268695263 26.659016731    -.000042788 .000075657 .000529483    263
 1   19.950604984 16.886229873 24.130551117    .000152722 -.000229237 -.000185451    264
 1   12.855981967 18.726982483 1.414026147    .000565960 -.000189381 -.000244133    265
 1   17.506594348 21.256747265 6.153128639    .000785322 -.000709562 -.000588592    266
 1   7.654099032 26.892659928 10.394184851    -.002562129 -.003262179 -.006532071    267
 1   9.355145010 25.033816956 20.976988700    -.000200041 -.000415685 -.001207875    268
 1   6.940540226 19.908708567 8.185384614    .000679612 .000421575 -.001384528    269
 1   5.446483256 21.479476280 9.299412452    -.000297993 -.001116603 -.000448406    270
 1   16.386757486 3.700573844 9.434040360    .000026392 -.000264377 -.000136253    271
 1   4.930902715 10.930109712 11.762145530    -.000145124 .000788043 .001025364    272
 1   21.519234177 11.881438754 20.492329035    -.000639231 -.000114965 .000351542    273
 1   15.951381498 21.506560590 11.688546658    .000459976 -.000238167 -.000081048    274
 1   .011233565 9.819986409 .153765094    -.000050577 -.000439887 .000527984    275
 1   22.307555764 3.779398391 5.544332649    .000449286 -.000162468 .000040493    276
 1   17.822053527 7.231695764 19.126607800    -.000301793 -.000171861 -.000093509    277
 1   4.852692120 17.163313977 21.927968486    -.000080966 .000136658 -.000288798    278
 1   8.910351968 22.912402992 10.530055612    .000530690 .000934031 -.000788621    279
 1   20.253078829 24.745745314 16.341999881    .000022318 -.000285691 .000203177    280
 1   9.639761836 9.673590191 7.178265522    -.000472982 -.001066277 .000004469    281
 1   26.757646658 .868686070 22.272363925    -.000307939 .000101201 .000456560    282
 1   2.041668830 4.993457903 4.281443432    .000295315 -.000808190 .000698289    283
 1   20.951829016 1.106953908 26.080985482    -.000000524 -.000063131 .000191199    284
 1   2.214148747 6.117486335 17.490115593    -.000882988 .000960350 .001252613    285
 1   22.769040484 7.703379583 14.848952222    -.000532755 .000655727 .000095227    286
 1   15.538089103 12.642286332 11.246011332    -.000556654 -.000195837 -.000076911    287
 1   4.270767430 14.857025366 24.352861081    -.000210099 -.000085745 -.000199548    288
 1   1.437890603 10.297076384 24.323644519    -.000075097 -.000071541 .000442534    289
 1   21.457765108 25.380411079 21.624578570    -.000022030 -.000084981 .000067753    290
 1   10.530022665 11.253310781 21.619471782    .000016880 .000308812 .000129530    291
 1   3.877208792 4.363975232 16.530736329    -.000617562 .001144386 .001250983    292
 1   2.788013022 20.457450716 21.510634557    .000044351 .000231114 -.000697730    293
 1   23.505741913 25.690931422 27.248819428    -.000198776 .000115110 .000261561    294
 1   20.644944505 .981569618 19.466125220    -.000305088 -.000020630 -.000080010    295
 1   .059180414 14.032337623 23.050845318    -.000308762 -.000034993 .000239832    296
 1   17.895717255 17.596235798 21.293161218    .000331292 -.000186703 -.000127578    297
 1   14.274797833 15.040007423 .288827968    .000290836 -.000398397 -.000028365    298
 1   .509033584 8.459835096 23.338840141    -.000243866 .000047951 .000355072    299
 1   4.705696179 27.020335496 .470638071    -.000202081 -.000486007 -.001756584    300
 1   19.263482201 25.341218586 8.379023432    .000944407 .000305651 -.000123973    301
 1   14.640653397 14.655181770 2.529735553    .000325034 -.000479115 -.000032204    302
 1   7.235117319 11.091757111 25.667278669    -.000130849 -.000115017 .000426143    303
 1   17.211586443 4.417988977 1.670820112    -.000113552 -.000470569 .000034872    304
 1   19.905740484 7.069108310 22.740447314    -.000206473 -.000185459 .000166041    305
 1   16.807524194 23.886401150 15.592367913    -.000060901 -.000409749 .000171750    306
 1   4.089418498 9.939023633 2.028716932    .000353154 -.000635760 .000741656    307
 1   1.590932961 20.229606855 9.472619619    .000184840 -.000078252 -.000823110    308
 1   9.206505776 .946892772 6.777884779    .000177332 -.002819907 -.000237422    309
 1   25.018124889 1.102209983 5.857766992    .000661114 .000204748 .000297075    310
 1   20.176462414 16.951044295 18.283068275    .000194747 .000165190 .000108316    311
 1   .966708794 3.015613693 27.591142643    .000126226 -.000257602 .000318344    312
 1   3.120699835 10.996227288 22.816683527    -.000257561 .000239250 .000210888    313
 1   23.835266657 22.185612145 22.998441547    -.000138696 -.000104449 .000020037    314
 1   1.301463100 1.692670686 18.622505822    -.000861266 .000893368 .000583879    315
 1   14.871819143 27.505422577 17.585283875    -.000134536 -.000065937 -.000117590    316
 1   13.231807349 21.478971472 5.406617828    .000306199 -.000131896 -.000393124    317
 1   25.701520466 18.951582951 11.965038962    .000717747 .000661447 -.000259698    318
 1   24.659883133 18.466266340 9.809035258    .000691416 .000746565 -.000349588    319
 1   4.291482742 24.861518320 12.243295824    -.000236855 .002820681 -.001848160    320
 1   7.732236962 24.423606512 13.525325111    -.000295697 .004040406 -.003144813    321
 1   12.560849106 17.689206288 24.869977605    .000231157 -.000194653 -.000231901    322
 1   2.077153009 9.391891401 5.568026967    .000186691 -.000395144 .000484009    323
 1   20.311328457 13.015973494 12.311554857    -.000331116 .000065523 -.000143141    324
 1   9.867710881 .776665658 19.926111256    -.000408739 .000129176 .000415287    325
 1   23.490249225 22.612701727 8.995099811    .000735153 .000460874 .000070812    326
 1   8.268485971 26.585741958 12.697648103    -.000497600 .003124226 -.004693493    327
 1   23.526954681 6.141261053 11.561694123    .000004696 .000394626 .000814455    328
 1   14.677299705 8.735305886 4.574255936    -.001196299 -.000443255 -.000274759    329
 1   21.537778717 22.387763203 7.790928451    .000811703 .000177501 .000063669    330
 1   23.763254679 16.248447417 13.957382057    .000169392 .000643040 -.000296721    331
 1   3.701253039 5.127418773 12.528263422    .000469466 .000084433 .000595402    332
 1   22.578283090 18.768031900 21.835649665    .000017054 -.000101898 -.000123457    333
 1   .664928088 3.810091600 21.821705136    -.000341318 .000374263 .000581348    334
 1   10.998096097 2.319005209 14.387385108    .000460444 -.000075338 .001480615    335
 1   26.320668754 21.160839893 11.768468789    .000651079 .000527282 -.000131349    336
 1   19.576261085 20.426887851 11.229665255    .000621646 -.000238799 .000103766    337
 1   24.820720717 5.171846892 22.631336999    -.000515651 .000209093 .000590507    338
 1   19.968080646 4.369611181 11.084440572    -.000692174 .000629046 -.000272330    339
 1   19.063689310 19.725553771 7.143773513    .000658367 -.000406518 -.000017897    340
 1   8.853255371 13.124368720 13.446284631    -.000298545 .001035587 -.000281248    341
 1   11.345935758 11.060989997 1.931686458    .000031952 -.000695077 .000436086    342