1000
Lattice=" 27.664000 .000000 .000000 .000000 27.664000 .000000 .000000 .000000 27.664000 " properties=species:I:1:pos:R:3:forces:R:3:id:I:1 energy=-3035.325736132
 1   27.664940864 18.806740957 6.782387611    -.000095028 .000012668 -.000494640    1
 1   14.728130004 18.665190348 19.610627829    -.000094753 -.000711359 -.000297696    2
 1   19.845396931 15.233069171 15.941743057    -.000407401 -.000668471 -.000488995    3
 1   17.432104732 8.321024301 17.061376081    .000085825 -.000574603 .000844445    4
 1   12.918080151 12.861919048 13.391533090    .000618104 -.000431298 -.000362408    5
 1   8.863381349 16.695133520 .740806780    -.000768313 -.001273594 -.000426145    6
 1   13.932660390 23.973554224 26.948905898    -.000457920 -.000101167 .000043630    7
 1   24.754829458 22.737630772 12.427084378    -.000059432 .000303021 -.000489218    8
 1   .858892750 26.008713305 6.025008259    .000216014 -.000387982 -.000787226    9
 1   26.769691190 27.540562827 27.061316120    .001248811 .002087805 .000351241    10
 1   26.333500944 24.020415346 26.509258749    .001435263 .001209669 -.000349604    11
 1   24.750703407 12.838394504 12.739706032    -.000476450 .000283615 -.000632779    12
 1   12.019295278 16.262061648 11.543739090    -.000623665 -.001001175 -.000412483    13
 1   8.747629080 2.866811657 23.317986574    .001682803 .001194037 .001110705    14
 1   22.156233512 12.153466782 22.885475225    .000271957 -.000011067 -.000112140    15
 1   16.007458515 21.622951231 8.010479175    -.000623023 .001059751 .000286713    16
 1   22.735377242 17.468195028 5.255437256    .000418333 .000892896 .000416261    17
 1   5.642444844 9.402634403 26.296078732    -.000238113 .002044259 .000230943    18
 1   25.015421462 10.322604485 5.108300626    .000490779 -.000213934 -.000217982    19
 1   8.593425624 13.002346167 1.257703417    .000807009 -.000674201 .000372424    20
 1   25.624891897 18.105572977 1.794073084    .000433433 .001014315 -.000169727    21
 1   3.098404729 23.620503723 7.121548137    .000411304 .000001565 .001204162    22
 1   4.875641179 2.453861966 17.810608238    -.000381546 -.000881193 .001764605    23
 1   10.419536173 14.408999467 23.888919178    -.000073225 -.000725837 .000185647    24
 1   .324270266 14.935218288 19.264603501    -.000343321 .000124834 -.000436698    25
 1   27.322977987 9.466402322 21.242641032    -.000315931 -.000440682 -.001265059    26
 1   12.914649267 18.201967130 3.596541832    -.000237046 .000051095 -.000078364    27
 1   22.342712068 19.051029283 9.322609355    -.000692341 .000650009 .000004360    28
 1   17.657520033 3.220691461 15.586061419    .000329130 -.000457781 .000738668    29
 1   27.426774982 22.325659556 5.515861665    .001335198 .000821958 -.000579965    30
 1   4.798535802 21.779313350 14.230453656    .000943248 .000034150 -.000468788    31
 1   16.717024690 18.861091966 22.877940731    .000370334 -.000520429 .000151509    32
 1   16.985398786 2.887274433 3.394158007    .000093804 -.000476459 -.000660979    33
 1   9.798304954 16.658834165 12.294894929    -.000278004 -.000400335 .000232405    34
 1   8.217898070 6.108196091 12.589517998    -.000589967 .001703481 -.002885006    35
 1   15.790190100 27.174193470 3.593030882    .000107322 .000469854 .000060943    36
 1   10.700785985 6.629828035 20.157140617    -.001196308 .000366788 .000996204    37
 1   7.021892003 26.970217703 22.899822805    .000833770 -.000441827 -.000731136    38
 1   21.811147158 2.708211070 18.160781034    -.000388837 .000179919 -.000276804    39
 1   10.780217603 .417366608 1.377135041    -.000579945 -.001543330 -.000792048    40
 1   10.814511973 7.097149279 27.608018909    -.001847606 .000296375 .000129358    41
 1   10.634987592 25.459214963 8.687613220    .000751248 .002292728 -.000815178    42
 1   4.536490843 .726640061 11.492563450    .001618200 .003157418 -.002103695    43
 1   8.956461805 18.831564537 23.118840766    -.000388704 -.000653729 -.000903648    44
 1   1.324318064 13.124761930 26.429149900    -.000384036 -.000170147 .000346197    45
 1   23.567218370 11.011392851 19.582631053    -.000516463 -.000167145 -.000412325    46
 1   14.387442319 7.700067714 14.517268958    .002376444 .001905285 .000512933    47
 1   6.616050084 4.987014844 25.670848191    -.001274183 .000868246 -.002830040    48
 1   15.025108807 20.403624410 25.899904231    .000414136 .000265783 -.000222351    49
 1   9.877258457 4.955143476 8.981041394    -.002984224 -.002356911 .000502950    50
 1   1.308877452 18.346024805 1.048360608    -.000048756 .000428391 -.000573646    51
 1   7.509822452 2.434854416 1.420202463    .003099918 -.001401053 .003074137    52
 1   24.529113180 19.920176173 22.666369857    .000942569 .000146186 -.000197006    53
 1   .310840323 21.563110403 13.255109928    .000495790 -.000213730 -.000225034    54
 1   6.878224497 21.886394945 11.071126133    .000876701 -.000165617 -.002061033    55
 1   4.652036691 24.519787505 19.490784363    -.000625128 .001031086 .001897009    56
 1   1.904931124 18.801737856 3.307677328    .000441775 .000350621 -.000365594    57
 1   5.755850187 11.785252316 9.397332426    -.000383954 -.000592404 -.000382768    58
 1   27.212151879 11.782583136 7.429223356    -.000116706 .000273390 -.000108566    59
 1   23.371081910 4.399221084 .257698450    .000239498 -.000106626 -.000358658    60
 1   2.221839068 3.124747733 15.109855517    .001154777 -.000895863 .000353440    61
 1   18.803358504 .703862269 23.357667017    -.000007351 -.000846310 -.000041171    62
 1   8.115776382 11.719073606 9.342507918    .000298175 -.001061218 .001971712    63
 1   5.364543989 27.658444231 17.303816285    -.000343457 .000691710 .002150247    64
 1   20.478830412 21.785728174 21.585964433    .000049077 -.000406343 -.000149023    65
 1   7.111722401 5.200128474 3.631208876    -.003030394 -.000354366 -.003480809    66
 1   15.996710495 13.233940827 16.022648626    .000128111 -.000681909 -.000216716    67
 1   24.401102792 7.212912891 23.583124564    .000003551 -.000032498 -.000385410    68
 1   .151671988 12.244399553 24.634608821    -.000309523 .000094189 .000007668    69
 1   7.082432458 3.071563974 18.358082685    -.000482791 -.000734436 .002262890    70
 1   10.442291593 17.396314551 14.605497205    .000092885 -.001039540 .000294086    71
 1   13.885293608 9.721045360 17.484246134    .000042812 .000217778 .001173986    72
 1   13.336579614 21.082960736 1.515253605    .000179072 -.000688596 -.000025529    73
 1   24.467387936 3.357387714 14.929518264    -.000464003 -.000703861 -.000958450    74
 1   26.205961327 1.783566718 15.547215418    .000245367 -.001151228 -.001598752    75
 1   2.667841797 10.715778099 10.786882326    .000469018 -.000708384 -.001140461    76
 1   2.631641483 23.555709938 11.146497014    .000330697 .000685750 -.001007613    77
 1   7.674402757 19.927284578 12.178246908    -.000146902 -.001509787 -.000936943    78
 1   3.927520721 16.886742742 7.798369852    -.000396890 -.000434648 -.000597566    79
 1   23.670078188 26.507414640 16.503886655    -.000109177 -.000408012 -.000126527    80
 1   6.994671603 7.602020937 9.074289044    .001533890 .000700800 -.002223652    81
 1   18.781720107 3.953872909 21.419393061    -.000502851 -.000266615 .000166011    82
 1   11.078223189 19.032907965 26.224938994    .000111591 -.000852598 -.000532439    83
 1   14.774038405 27.372411747 5.795661101    -.002592557 -.001661212 -.000023268    84
 1   .792753901 21.987813236 18.568545940    .001834010 .000671903 .000798295    85
 1   5.641761838 18.083811312 2.648552272    -.000669875 -.000498980 -.000824873    86
 1   26.837563511 25.167287108 19.877671196    .000423761 -.000416834 -.000050261    87
 1   9.592320293 14.992941098 8.041792664    .000512592 -.000159057 -.000874988    88
 1   25.284816870 3.785072734 24.495906818    .000052954 -.000487514 -.000724416    89
 1   24.091196429 5.750174968 15.846869486    -.001144243 -.000763529 -.000252135    90
 1   11.792754610 4.491102697 2.401328801    -.001870161 -.001270123 -.000647202    91
 1   .590425476 12.450259490 15.863047896    -.000532053 .000122163 .000039098    92
 1   19.896599695 .388258967 15.589067496    -.001022564 -.000370904 .000149156    93
 1   17.347716423 9.553026321 20.305012840    .000112122 -.000022402 .001011075    94
 1   22.760001505 14.171041001 24.096595426    .000391211 -.000119340 .000146683    95
 1   17.785197659 20.839761778 23.737412234    .000267397 -.000235581 .000454987    96
 1   10.171644139 19.835030623 19.774554926    -.000558587 -.000315250 -.000832664    97
 1   13.009222599 9.508594709 11.386027708    -.000134889 .001444964 .000316766    98
 1   25.463748070 10.099073148 15.342350639    -.000759844 .000368453 -.000329543    99
 1   27.534548730 6.236554107 26.306626031    -.001276719 .000554980 -.000863440    100
 1   22.767997285 11.642084673 8.061127890    .000519210 .000122329 -.000129347    101
 1   15.046837314 26.037338196 24.004397288    -.000362450 -.000365849 .000632331    102
 1   9.127788501 14.773141156 16.936191004    -.000419214 -.000178260 .000211241    103
 1   19.049063681 22.946466951 5.092265306    -.000951952 .000909500 .000505197    104
 1   17.946273011 26.500930553 4.121093535    -.000520263 .000461972 -.000061219    105
 1   3.097824963 25.449169697 5.707330058    .000728200 .000244565 -.000215356    106
 1   9.883152278 10.060939564 18.267321434    -.000616920 -.000066160 .000347527    107
 1   11.247262042 5.363160298 22.147432273    -.000241066 .000013739 .000448078    108
 1   23.858349958 1.404771820 2.662468650    -.000001020 .000615639 -.000485393    109
 1   16.114314066 24.503376911 27.639317437    -.000364146 .000116326 .000832177    110
 1   13.932983567 13.754758741 19.561390118    .000371173 -.000555589 .000854074    111
 1   1.789552632 15.753806797 7.493811320    -.000109162 -.000221795 -.000388630    112
 1   11.171350950 6.961723800 16.592087153    -.000880315 .000116668 .002298348    113
 1   12.841450874 7.651343189 .971002567    -.001589068 -.001068147 .000450555    114
 1   24.258887922 24.743854700 8.446814756    -.000141674 -.000400545 -.000368486    115
 1   17.096078062 14.609240313 5.270295082    -.000160327 .000223934 .000158402    116
 1   19.857518702 4.827617964 26.023471834    .000008402 -.000420372 -.000883813    117
 1   8.617846497 2.463368375 14.703210039    .000481008 -.000743672 .002735430    118
 1   18.910835871 19.004824659 13.028060051    -.000417349 -.000669421 .000315495    119
 1   8.844035913 2.190352219 17.028993111    -.000323169 .000348844 .002595309    120
 1   12.575992354 5.934149684 14.845447870    .000279612 .000386682 .000414722    121
 1   18.125226641 15.155154302 27.141758213    .000440694 -.000166445 -.000026236    122
 1   26.941245996 14.276116885 4.637121669    .000056736 .000246578 .000097245    123
 1   5.921830696 19.271114434 16.458691314    -.000260203 -.000843350 -.000060252    124
 1   14.587873246 6.795411473 21.101213689    -.000989422 .000078046 .000734089    125
 1   2.652594866 12.296818477 20.904625221    -.000746272 -.000096550 -.000253279    126
 1   19.611981184 6.284861530 3.798324191    -.000216098 .000642437 -.000570187    127
 1   11.227984979 13.969068233 16.379119436    -.000176092 .000083565 .000162141    128
 1   20.921616163 16.691397913 6.582799431    -.000025482 .000445643 .000265206    129
 1   14.984450976 22.263733118 20.922604349    -.000000772 -.000643608 .000009500    130
 1   5.043208470 11.088695613 7.165459388    .000206012 -.001395233 .000297718    131
 1   14.883729997 17.262329559 6.227369879    .000154087 .000517285 -.000277897    132
 1   25.000031288 25.045916787 15.177015768    .000218045 .000051854 -.000714107    133
 1   16.898299465 22.757321718 22.489902317    -.000494733 -.000550569 .000062752    134
 1   5.308462535 23.184346385 7.645684824    .001110936 .001914156 -.000195155    135
 1   6.015323090 21.183629627 .204845955    .000575824 .000853102 -.000207741    136
 1   9.543046223 2.203635636 5.049312881    -.003003022 .000645113 -.004597672    137
 1   2.874407840 18.606835430 27.056234981    -.000221412 .000776999 -.000740507    138
 1   6.270373004 15.019689749 11.328018703    -.000209472 .000569047 -.000075218    139
 1   12.927609839 15.856682853 3.749359564    .000265084 -.000239060 -.000351446    140
 1   9.563454673 24.448538353 25.930570353    .001591970 -.000994405 .000379402    141
 1   26.652813810 .532225778 13.446880487    -.000501544 -.000539030 -.000972312    142
 1   9.173428700 9.710825209 25.611856878    .000093670 -.000218060 .001237863    143
 1   3.900396317 9.081922867 6.925638817    .001789351 -.002274326 .000947866    144
 1   16.914033824 23.514541444 11.036125490    -.001190051 .001332990 .000033374    145
 1   21.582592227 8.585831324 1.074876194    .000187534 -.000081116 -.000474912    146
 1   1.947655757 21.829102291 5.895011917    .001256855 .000810358 .000720469    147
 1   11.437360685 27.036167052 10.267179085    .002256339 .003012669 -.004875000    148
 1   13.741286655 1.890733596 11.948887323    -.001706322 .000237239 .000019373    149
 1   7.379596226 1.273517592 7.941135993    .002998287 .002921824 -.000960061    150
 1   .384098795 12.134286239 .632749241    .000671114 -.000461524 .000597486    151
 1   .114217000 9.163195880 2.431288389    .000704199 .000307124 .000679498    152
 1   15.469262254 20.640028905 4.758740788    -.000083525 .000588498 -.000025498    153
 1   8.003820469 25.648491579 3.649961297    .000034601 -.001210639 .000323971    154
 1   14.092578225 14.477364855 23.451741634    .000089196 -.000433519 .000080928    155
 1   24.762459441 17.633913959 19.353103307    -.000303687 -.000085879 .000208802    156
 1   2.129897628 24.881175905 1.653197966    -.000761767 .000955080 .001691636    157
 1   8.805882541 8.422781258 5.387211581    .003065326 .000837065 .000196103    158
 1   1.311754184 14.102194486 12.492807397    -.000438705 .000212060 -.000030323    159
 1   2.127984001 6.906145260 26.361998532    -.002165992 .001504139 -.000539921    160
 1   4.355960481 20.653542877 17.780748420    .000253903 .001794374 -.000198193    161
 1   5.743807166 16.332340972 18.489978065    -.000232525 -.000252376 -.000361704    162
 1   5.006215737 1.192237019 13.782796511    .002039169 .001695925 -.001186477    163
 1   27.336039404 7.148664599 14.355545724    .000192872 -.000172359 -.000528197    164
 1   12.840372823 15.124991889 9.600307753    -.000076715 -.000868922 -.000529782    165
 1   19.497815946 23.586034333 26.744758631    -.000041303 -.000015154 .000839257    166
 1   5.872209275 15.324500487 14.992177979    -.000195440 -.000518688 .000358812    167
 1   11.114211749 18.686081323 17.934281956    -.000194097 -.001140437 .000419502    168
 1   14.666498684 18.322562976 9.854905361    -.000739241 -.000265890 -.000237029    169
 1   26.628453813 7.260579332 3.030979554    .000789591 .000257680 .000016353    170
 1   11.708627934 24.265414066 2.730221383    .000010816 .000414962 -.000035823    171
 1   20.637062332 15.341510740 12.102667950    -.000361693 .000106577 .000098455    172
 1   7.323640472 17.916262019 9.291202749    -.000436560 -.000699016 -.000452320    173
 1   1.727080703 14.414596337 21.345892993    -.000377707 -.000107065 -.000151484    174
 1   16.256356020 9.423469118 6.256862635    -.001062505 .000444022 -.001217311    175
 1   2.387196978 21.109562776 3.627450395    -.000431614 -.000043445 -.000564196    176
 1   18.103164551 13.585153542 8.597802568    .000205036 .000413274 -.000271931    177
 1   25.785347004 23.317407200 22.586730566    .000508015 .000870060 .000046593    178
 1   11.530533086 18.207554596 7.927763852    .000134588 -.000423767 -.000025166    179
 1   25.563581186 18.103379294 4.077752044    .000483205 .000643961 -.000261322    180
 1   8.263962197 25.286432278 18.931083004    -.000568189 -.001086326 .002405854    181
 1   22.619931172 21.041400510 18.782380527    .000229466 -.000153853 -.000097056    182
 1   15.425346537 21.755453593 2.750317119    .000453865 .000791594 .000329822    183
 1   21.219221422 26.836632381 3.017637983    -.000328970 .000309074 .000414604    184
 1   24.925019685 1.456878672 19.286533175    -.000013040 -.000470455 -.000860344    185
 1   21.918103484 8.362832265 6.178091205    .001009086 .000543410 -.000177431    186
 1   .939149183 23.327896378 26.185939322    .001633578 .001758081 .000761583    187
 1   12.614716777 18.493675549 22.577904483    .000296053 -.000489518 -.000485381    188
 1   17.523643203 22.591755694 27.436303072    -.000165369 .000325331 .000814897    189
 1   15.047639263 5.392602190 5.760845325    -.000128740 .000251383 -.000566139    190
 1   14.154153974 25.632959026 12.369539009    -.000828156 .001786461 .001131681    191
 1   10.822202185 3.111212721 21.994397139    .001259500 -.000036629 .001300404    192
 1   25.776799294 25.265855825 24.057367658    .001840422 .000899347 .000575159    193
 1   21.890695562 .934215736 1.676137497    -.000327847 -.000060435 -.000316127    194
 1   10.236255123 3.445520286 26.740072274    -.000966042 -.000190374 -.002058465    195
 1   18.053700333 24.732634845 17.492447050    -.000423963 -.000358191 -.000332589    196
 1   21.350296023 20.624990610 16.942046633    -.000323844 -.000356331 .000010949    197
 1   16.406451136 25.443623022 12.326971119    -.000771941 .001295492 -.001126462    198
 1   3.337418856 26.950060603 16.354818848    .000040112 -.000655234 .001402032    199
 1   1.261624060 17.979482419 10.228229989    -.000016894 .000127522 -.000557835    200
 1   3.806500395 16.208398031 26.351806872    -.000124722 .000330862 -.000089444    201
 1   16.043211173 5.770927300 19.416709091    -.000502744 .000244596 .000602963    202
 1   21.890503943 20.330912653 11.302371223    -.001320286 -.000205625 .000380268    203
 1   3.866944608 24.870203855 3.397174728    -.000272560 -.000777578 .001573174    204
 1   18.326089725 5.701817988 12.345141467    .001358702 -.000307961 .000879818    205
 1   9.074311756 10.664260468 1.822204169    -.000381225 -.000563270 .001271066    206
 1   26.747619254 5.508720570 21.290033507    -.000026528 -.000754574 -.000642898    207
 1   26.133949210 7.869474520 18.334006366    -.000043258 -.000322055 -.000342002    208
 1   27.233429796 5.320412404 12.972810127    .000797343 .000478989 -.000109950    209
 1   12.985653630 8.999801602 25.119324487    -.001120019 -.001710202 .000920933    210
 1   4.721062384 9.304411371 22.343326403    -.001333893 .000160021 -.000178789    211
 1   24.847634781 22.198514092 26.757149672    .001368190 .001051695 -.000141400    212
 1   .179395918 17.905201783 4.705227165    .000448057 .000117535 -.000594160    213
 1   23.157792253 16.654637725 20.986605944    -.000120998 -.000379093 .000395835    214
 1   13.172575961 25.958060801 18.115565139    -.000413984 -.000349039 -.001389895    215
 1   14.192122659 15.399571778 21.242951693    .000123538 -.000329620 .000357136    216
 1   26.166206467 15.940837512 1.034757952    .000408306 .000517166 .000193290    217
 1   4.851854927 3.186530133 26.317828254    -.000882226 -.001547040 .001247991    218
 1   3.838211932 18.636092148 6.302430626    -.000218225 -.000295959 -.000233706    219
 1   20.304003859 10.657994663 23.750937921    -.000157524 .000069459 -.000681607    220
 1   9.891877259 22.389364555 27.146445559    .001034447 -.000385081 -.000477271    221
 1   11.348093414 26.009512364 25.449460145    .000651640 -.000332893 .000049729    222
 1   1.820977599 12.236619507 13.851796378    -.000259722 .000438602 .000335385    223
 1   9.971239526 8.951704165 16.220603179    .000276209 .000130102 .000782602    224
 1   17.274717654 3.768508390 19.619982871    -.001236542 -.000128856 .000204075    225
 1   16.590567467 11.421295365 12.972281361    .000568693 -.000760834 .000985675    226
 1   25.508982623 14.373717737 2.653108674    .000463559 .000279392 .000059377    227
 1   6.172763451 5.960768788 .102273964    -.001954329 .000058930 -.002499751    228
 1   13.711421477 12.173243378 23.061126161    -.000329197 -.000413958 .000979835    229
 1   26.741377653 20.197398811 21.596221374    .001269913 .001327563 -.000204073    230
 1   7.629530742 5.673757737 10.289349389    .001328985 .000916544 -.003020024    231
 1   22.406486656 19.726706191 13.554488832    -.000578646 .000188834 .000230600    232
 1   4.390542508 12.192043603 2.331476372    .000396699 .000363747 .000653569    233
 1   .901995856 18.709604683 21.259863536    .001948351 .002233809 -.000511014    234
 1   21.374873538 16.070203081 14.155548259    -.000170570 -.000211526 .000182961    235
 1   1.732817848 27.078858510 18.134951263    -.000136473 -.000381462 .002328320    236
 1   17.076332927 24.923963124 23.629807662    -.000134053 -.000513761 .000000510    237
 1   20.142787351 24.014374643 1.328636919    -.000309127 .000082282 .000757799    238
 1   14.288804404 6.136036018 11.439928047    -.000676280 .000343952 .001229852    239
 1   22.236469316 25.192689752 17.903345698    -.000837974 .000072301 -.000260583    240
 1   14.708341432 9.983802612 23.651818910    -.001179389 -.001024582 .000770174    241
 1   19.539525451 7.884841723 5.406493570    .000857440 .000942889 -.000772539    242
 1   5.425600021 18.719391238 23.656079223    -.001171483 .000704241 -.000118798    243
 1   24.890807216 2.730830297 .935492974    -.000097934 .000037616 -.000798152    244
 1   12.075108195 12.872494438 9.641485033    .000054632 -.001273055 -.000366935    245
 1   6.933976745 24.985114659 7.539792273    .000708106 .001535603 -.001606877    246
 1   19.069359216 5.064672227 7.190233834    .000439205 -.000070282 -.000101759    247
 1   12.133352608 3.705464290 15.846319434    .000179109 .000553500 .002400308    248
 1   22.523143512 9.889835495 11.646933011    -.000034933 -.000108835 -.000389806    249
 1   .874941710 19.544110862 15.838918062    -.000225909 .000171471 -.000073580    250
 1   16.056578068 14.159344451 26.663543343    .000361385 -.000264467 -.000171743    251
 1   3.111823076 1.157216996 3.703294946    -.002647982 -.001898759 -.000518567    252
 1   5.128464079 13.176386502 .251579797    .000583724 -.000246001 .000781485    253
 1   5.751395461 23.503429463 21.392960672    .001509097 -.000056068 .001436837    254
 1   11.865653161 6.842931894 25.456793905    -.001098720 -.001252809 .000946799    255
 1   .976577381 15.793314589 5.241645306    .000237811 .000125939 -.000428145    256
 1   24.599547019 .456547172 8.021483414    .000007430 -.000463735 -.000889917    257
 1   24.651556374 5.269762112 7.750825530    .000559536 -.001268635 .000446886    258
 1   15.434225323 27.633073457 9.554773726    .000815854 .001824462 .000868039    259
 1   23.376514579 18.155900720 1.452636690    .000335681 .000583106 .000285103    260
 1   21.179789961 19.974778841 20.339392807    .000206609 -.000632775 .000099562    261
 1   25.499068381 16.667838483 24.559239007    .000420934 .000116918 .000053986    262
 1   24.920988927 1.267486095 26.659677194    .000666652 .000553241 -.000530987    263
 1   19.948887577 16.884991602 24.129259634    .000370369 -.000253831 .000103728    264
 1   12.853766340 18.729938459 1.414720422    -.000023624 -.000134137 -.000017326    265
 1   17.522930152 21.246228553 6.141154981    -.001122558 .001149164 .000305691    266
 1   7.540815825 26.693640388 10.731417692    -.002263208 -.000338548 .001065531    267
 1   9.360656635 25.033888384 20.978684684    .001212035 .000576734 .001726313    268
 1   6.943925599 19.923537776 8.197849125    -.000431072 -.000004345 -.000040660    269
 1   5.452649749 21.493365622 9.321204623    .000864698 .001791271 -.001201123    270
 1   16.440872463 3.705896670 9.423401443    .002879851 .003296749 .000537815    271
 1   4.925363502 10.941060653 11.769252113    .000773069 -.001721872 .002008419    272
 1   21.515058206 11.882514507 20.494322274    -.000973671 -.000370348 -.000271322    273
 1   15.962066657 21.499695353 11.680430899    -.000525570 .000101514 .000186168    274
 1   .015790036 9.823403185 .150450590    -.000210804 -.000012633 .000869859    275
 1   22.309506048 3.781197107 5.536311123    .001413029 .000016880 -.000174591    276
 1   17.810071401 7.229718694 19.115899828    -.000108270 .000256716 .000658585    277
 1   4.857484861 17.159294021 21.934115555    .000094106 .000342647 .000109089    278
 1   8.914259752 22.907361284 10.545632288    -.000734998 .000931853 .000663769    279
 1   20.251308787 24.742943182 16.340804648    -.001203877 .000337316 .000574572    280
 1   9.633093864 9.684464375 7.198008047    .002350646 .001172926 .000339959    281
 1   26.752608912 .867854487 22.276822917    .001053854 -.000847230 .000040401    282
 1   2.033767634 5.011985102 4.264411446    .001607533 .000153113 .000152584    283
 1   20.953332967 1.106495050 26.080459540    .000406829 -.000238686 -.000101754    284
 1   2.206092037 6.116625360 17.487421774    -.000313387 -.000960869 .000134586    285
 1   22.762360824 7.710663080 14.849990152    -.000074519 -.000519873 -.000129259    286
 1   15.532468963 12.637528839 11.243046420    .001272194 .000221168 .000943465    287
 1   4.275740628 14.854123268 24.356945233    -.000256800 -.000095049 -.000115546    288
 1   1.442010494 10.294257141 24.324022748    -.000539130 .000288766 .000005901    289
 1   21.454968159 25.377609300 21.629224652    -.000106482 -.000280095 -.000307681    290
 1   10.530765928 11.241205891 21.612543398    -.000104793 .000768454 .000218690    291
 1   3.859261534 4.353238982 16.518467877    .001035414 -.000828551 .001403268    292
 1   2.789008081 20.447426156 21.516260290    .000611001 .001859055 .000174149    293
 1   23.513667072 25.691681093 27.249897644    .001339458 .000084032 -.000304742    294
 1   20.641631013 .978810911 19.469970700    -.000739538 .000021379 -.000078009    295
 1   .061100130 14.031149512 23.052566545    -.000139031 .000105470 -.000017423    296
 1   17.893254072 17.595828632 21.291899114    .000149809 -.000702372 -.000136218    297
 1   14.273577170 15.040212588 .287511023    .000544995 -.000225593 -.000163296    298
 1   .510773621 8.457996380 23.339770527    -.001458673 .000831002 -.000563888    299
 1   4.712124232 27.034498699 .458055989    -.000487905 -.001636675 -.000217945    300
 1   19.290264209 25.334018700 8.373726492    -.001130704 .001081568 -.000014574    301
 1   14.638570596 14.653278684 2.528718208    .000285046 -.000004665 -.000049065    302
 1   7.239276441 11.086843317 25.664991808    .000743418 .000264888 .000498610    303
 1   17.219964681 4.410596640 1.672143834    -.001059121 -.000885683 .000097875    304
 1   19.900972346 7.069401558 22.740454020    .000181832 -.000120892 .000026087    305
 1   16.809570961 23.884879084 15.586663333    -.001281533 -.000819556 -.000456723    306
 1   4.095542182 9.945029252 2.023091133    .001207906 .000328285 .001900552    307
 1   1.595464989 20.229685614 9.478191283    .000386702 .000182465 .000066920    308
 1   9.493964046 1.012829884 7.121095875    -.000540366 .002776640 -.005321089    309
 1   25.027704443 1.108269375 5.851993351    .000419321 .000219971 -.000390177    310
 1   20.173587187 16.951813889 18.284676148    -.000263235 -.000360030 .000422739    311
 1   .981107366 3.015141718 27.590143473    .001158785 .001577819 .000469278    312
 1   3.125525051 10.989753908 22.816887228    -.000662179 .000426291 -.000216293    313
 1   23.832521064 22.182333586 23.002424280    .000813825 .000151437 -.000044295    314
 1   1.285676990 1.690274057 18.624112550    -.000310933 -.000632806 .001358087    315
 1   14.872821765 27.506951361 17.567450380    .000106779 -.000733749 .000241271    316
 1   13.241655010 21.475780007 5.404776679    -.000287859 -.000398701 -.000745676    317
 1   25.696639106 18.945530003 11.965250235    -.000046946 -.000317292 -.000089950    318
 1   24.662956611 18.465260513 9.804894148    -.000307330 .000342838 -.000501880    319
 1   4.266840723 24.789229514 12.315001532    .002080413 .001008316 -.001939026    320
 1   7.759191351 24.366862567 13.588404221    .000775302 -.000929477 -.000578311    321
 1   12.559322036 17.690078511 24.868883110    .000636183 -.000397884 -.000347102    322
 1   2.068253869 9.412805826 5.558245516    .001006740 -.000930586 .001511840    323
 1   20.307254807 13.016728878 12.309972078    -.000133553 -.000201013 -.000240955    324
 1   9.865843873 .780469635 19.901310327    -.000244719 -.001310575 .002580581    325
 1   23.500711259 22.612821637 8.991786195    -.000366313 -.000265333 -.000117974    326
 1   8.322308549 26.508977800 12.826150650    .000387161 .000241545 .000436802    327
 1   23.518619236 6.153382904 11.561643692    -.001490990 .000326948 -.000281025    328
 1   14.687711930 8.727450226 4.587786558    -.000854420 .000142903 -.001140458    329
 1   21.553535513 22.382746669 7.783649762    -.000784612 -.000095656 .000135153    330
 1   23.762302315 16.249023026 13.962010132    -.000205645 .000011527 -.000077403    331
 1   3.641636764 5.134326340 12.512805806    .001843806 -.000298092 .002565430    332
 1   22.576132451 18.766137702 21.836985382    .000510616 -.000262517 .000435734    333
 1   .662877744 3.809992264 21.822050791    -.000525076 .000109870 .001542613    334
 1   10.973182580 2.308106462 14.256130261    -.000317632 .001209344 -.002464446    335
 1   26.312667710 21.153078057 11.770603169    .000373442 -.000211240 -.000319597    336
 1   19.583900576 20.420173811 11.225549435    -.000978630 .000461627 .000711506    337
 1   24.818478498 5.173813547 22.633841843    .000181106 -.000041857 -.000369985    338
 1   19.977577585 4.381603303 11.080877328    -.000363836 -.000783959 -.000005833    339
 1   19.076377806 19.718650344 7.139197021    -.001217985 .000512354 .000005867    340
 1   8.849400378 13.119937494 13.444928220    -.000385017 .000096332 .000430197    341
 1   11.349480584 11.064514906 1.926836090    -.000155605 -.001293006 .000491668    342