1000
Lattice=" 27.664000 .000000 .000000 .000000 27.664000 .000000 .000000 .000000 27.664000 " properties=species:I:1:pos:R:3:forces:R:3:id:I:1 energy=-3031.702048217
 1   27.653187651 18.787920893 6.779065065    .000309925 .000827662 .000265943    1
 1   14.724826042 18.670508468 19.609786856    .000459031 -.000501791 .000499496    2
 1   19.855935805 15.239715055 15.948358808    -.000465718 -.000584782 -.000332694    3
 1   17.452246571 8.332469294 17.082606817    -.000961655 -.000765821 -.001424460    4
 1   12.925550223 12.873892678 13.395179491    -.000618900 -.001199618 -.000379132    5
 1   8.861674594 16.688856126 .738585446    -.000315915 .000307821 .000409883    6
 1   13.927483215 23.973266623 26.948669690    .000233472 .000140459 .000287713    7
 1   24.750272221 22.737366605 12.424133721    .000501995 .000263403 .000298140    8
 1   .832896631 25.984149277 6.016662531    .000582831 .000958647 .000405426    9
 1   26.763669658 27.536550745 27.057464462    .000070477 .000160955 .000333821    10
 1   26.329884159 24.018670736 26.501661440    .000119535 .000057636 .000319275    11
 1   24.756997000 12.831249031 12.736701754    -.000093244 .000015866 .000102798    12
 1   12.015473596 16.267311063 11.543467832    -.000092542 -.000487370 .000469591    13
 1   8.751377151 2.874086938 23.325650798    .000186678 .000195928 -.000245826    14
 1   22.159840833 12.153530315 22.886026993    -.000031378 -.000010069 -.000265803    15
 1   15.972396182 21.654524362 8.021648767    .000563210 -.000364166 .000372493    16
 1   22.723538564 17.470215020 5.259507473    .000011598 .000172600 .000298764    17
 1   5.639420072 9.405773926 26.302326182    -.000098276 .000703434 -.000469841    18
 1   25.022781955 10.309750438 5.115390338    -.000206163 .000417564 .000018834    19
 1   8.593692491 12.993972527 1.261999442    -.000203779 .000601415 -.000025116    20
 1   25.620884686 18.100865854 1.790991512    -.000064739 .000249218 .000274252    21
 1   3.079250747 23.587537586 7.104386312    .000556751 .001366464 .000864416    22
 1   4.883662436 2.459897126 17.821572791    -.000271980 -.000449872 .000730431    23
 1   10.417353450 14.414917601 23.893992858    .000235379 -.000236002 -.000207821    24
 1   .324076045 14.935035118 19.259756808    .000217908 -.000043427 -.000032961    25
 1   27.327404959 9.464052478 21.240915085    .000010640 -.000015788 -.000163516    26
 1   12.911497043 18.201166909 3.594995823    -.000137225 .000263156 .000594900    27
 1   22.330869647 19.055852581 9.323442245    .000154429 .000054419 .000336879    28
 1   17.660938987 3.228641479 15.589437685    -.001114178 -.000657756 -.000855374    29
 1   27.410574213 22.307573939 5.508182959    .000389120 .000757962 .000430695    30
 1   4.792614953 21.792335880 14.208368398    -.000090826 -.000247210 .000939107    31
 1   16.716562434 18.863794737 22.878535742    .000221399 -.000122454 .000256364    32
 1   16.988777859 2.892465857 3.387124640    .000908750 .000327168 -.000682123    33
 1   9.792757815 16.658623132 12.293286836    -.000049596 -.000317420 .000604106    34
 1   8.281573046 6.100508283 12.620711082    -.001976065 -.000346935 -.001269761    35
 1   15.780367681 27.179477931 3.589637781    .000952347 .000020823 -.000435562    36
 1   10.704037555 6.651324183 20.185487725    -.000100710 -.000716845 -.001246253    37
 1   7.018222787 26.972639392 22.911167471    -.000089198 -.000151346 .001083751    38
 1   21.815927275 2.708479887 18.158152618    -.000459700 .000211363 -.000244792    39
 1   10.758018638 .418187827 1.370650363    .000561515 .000711502 -.000468769    40
 1   10.795079745 7.088013994 27.619616165    .000221220 .000670075 -.001024386    41
 1   10.619917954 25.586150171 8.730098179    .000236629 -.000934184 -.001175020    42
 1   4.686674291 .761024473 11.387169174    .001272939 .000193146 -.001332577    43
 1   8.950891893 18.832059171 23.113227062    .000111257 -.000381950 .000725503    44
 1   1.320529969 13.120123683 26.431546115    -.000123159 .000282636 -.000078871    45
 1   23.575079901 11.011243628 19.582360830    -.000075153 -.000256027 -.000218907    46
 1   14.432377649 7.747211606 14.540219971    -.002069287 -.002231227 -.001431367    47
 1   6.608221245 5.006552364 25.665838753    .000075212 .000807817 -.000782465    48
 1   15.023872563 20.404345509 25.899726228    .000068985 -.000064061 .000617455    49
 1   10.051458595 4.882654546 8.927405132    -.000511133 -.002065107 -.003175876    50
 1   1.304103920 18.336083980 1.041482038    -.000079923 .000430521 .000384254    51
 1   7.336475776 2.379458718 1.254330154    -.000676431 .000191929 -.002095063    52
 1   24.531096101 19.922108220 22.659878995    -.000023882 .000109732 .000198658    53
 1   .314929297 21.569265447 13.241110552    .000813047 .000687299 -.000214344    54
 1   6.866445893 21.883253643 11.047460830    .000429270 .000090728 .001098776    55
 1   4.654320485 24.530400807 19.483750912    -.000320108 -.000544323 .001304248    56
 1   1.897846595 18.784789785 3.301469393    -.000011940 .000681569 .000385637    57
 1   5.764380356 11.766949970 9.400805242    -.000073408 .000613833 -.000342043    58
 1   27.220127268 11.764184720 7.431775681    -.000188632 .000485958 -.000023113    59
 1   23.370754175 4.397009724 .258146048    .000043148 .000193427 -.000115052    60
 1   2.254271912 3.118440511 15.098859600    .000307030 -.000271384 .000221783    61
 1   18.803599845 .704092926 23.359511266    .000168696 .000177698 -.000085489    62
 1   8.125148191 11.708212052 9.344563507    -.000080444 .000244367 -.000716079    63
 1   5.377704462 .008124543 17.298565844    -.000280093 -.000642264 .001315622    64
 1   20.478536840 21.787754067 21.582698953    .000130409 .000092844 .000277740    65
 1   7.078971035 5.169249376 3.609580402    -.000026534 .000737251 -.001830561    66
 1   16.005978248 13.245206236 16.030331186    -.000467380 -.000842606 -.000405585    67
 1   24.404454470 7.209572196 23.583160762    -.000123597 .000048295 -.000163461    68
 1   .149403864 12.243100102 24.635123572    -.000071932 .000163188 -.000088638    69
 1   7.083001136 3.082824988 18.379860994    -.000224597 -.000742218 .000365990    70
 1   10.434929290 17.404240022 14.602313366    .000409436 -.000814574 .000756898    71
 1   13.898250067 9.744786062 17.508943601    -.000753539 -.001289110 -.001652080    72
 1   13.331366607 21.081738073 1.514514703    -.000015864 .000151792 .000477510    73
 1   24.481149267 3.349367344 14.927359737    -.000193419 -.000057381 .000156028    74
 1   26.227614215 1.778952279 15.536784600    .000096804 .000063378 .000140697    75
 1   2.684193025 10.680820297 10.781294069    -.000297061 .000578492 -.000187752    76
 1   2.626336688 23.549625599 11.127725034    .000782167 .001271650 .000400896    77
 1   7.662353738 19.928560931 12.164679172    .000072205 -.000233172 .000921189    78
 1   3.922396000 16.866497918 7.796040045    -.000113704 .000671878 .000097251    79
 1   23.677868991 26.506708376 16.498295197    .000071183 .000095748 .000071870    80
 1   7.014790955 7.572144578 9.066313018    -.000485816 -.000314137 -.001210068    81
 1   18.789108211 3.955787941 21.427035142    -.000295716 -.000017064 -.000732807    82
 1   11.075265540 19.030299366 26.220345758    .000079673 -.000188086 .000661157    83
 1   14.751821058 27.393496940 5.781207538    .001141822 -.000533277 -.000497568    84
 1   .797022353 21.999438214 18.555264843    .000171453 .000054139 .000360261    85
 1   5.633638767 18.067847039 2.639577443    .000045149 .000789757 .000681969    86
 1   26.845685090 25.172513753 19.866369915    .000005449 .000055695 .000333212    87
 1   9.592639836 14.984182517 8.040318912    -.000198882 .000396510 .000246929    88
 1   25.286207009 3.780896807 24.495097176    -.000106318 .000100246 -.000112742    89
 1   24.103087126 5.743436324 15.845748875    -.000034398 -.000087272 .000001733    90
 1   11.765968206 4.485183414 2.402661193    .000459680 .000632599 -.001624520    91
 1   .598955057 12.443811732 15.858658428    -.000015150 -.000098238 -.000051532    92
 1   19.897231607 .392224916 15.589063676    -.000346915 -.000107470 -.000165753    93
 1   17.360003628 9.566934289 20.320252805    -.000430224 -.000930318 -.001103107    94
 1   22.760808947 14.170984395 24.096250854    -.000035082 -.000005621 -.000089949    95
 1   17.784515525 20.842176868 23.737238463    .000052238 -.000000839 .000310364    96
 1   10.163777272 19.836938955 19.772084931    .000221687 -.000568956 .000966767    97
 1   13.025951104 9.524309276 11.387631169    -.001395688 -.001573619 -.001309841    98
 1   25.474596878 10.093074901 15.338997172    -.000103983 -.000159827 .000069467    99
 1   27.531729661 6.233972467 26.308212160    -.000170293 .000285756 -.000207734    100
 1   22.775174711 11.638251538 8.065534876    -.000070537 .000161350 .000225401    101
 1   15.045645900 26.036909088 24.007010226    .000203511 .000099909 .000057755    102
 1   9.126843675 14.778755890 16.936196079    .000245483 -.000549160 -.000066053    103
 1   19.024822414 22.954805162 5.099685195    .000485702 -.000090498 .000222481    104
 1   17.931333737 26.502909020 4.126561847    .000741809 .000022820 -.000072218    105
 1   3.060712391 25.405458441 5.684414840    .000832263 .001505227 .000989794    106
 1   9.888335798 10.079297642 18.278404538    -.000071223 -.000885790 -.001147765    107
 1   11.252260795 5.373237353 22.165183829    -.000016158 -.000037121 -.000942354    108
 1   23.848959082 1.400642736 2.664031803    .000427785 .000122294 .000099592    109
 1   16.107792927 24.504524844 27.642122449    .000295413 .000212532 .000114535    110
 1   13.936565519 13.763617735 19.568305774    .000112980 -.000514456 -.000336748    111
 1   1.786733193 15.732362186 7.493573521    -.000089049 .000664474 .000042426    112
 1   11.186307707 6.988213010 16.636475528    -.001231509 -.001457206 -.001673261    113
 1   12.828880877 7.644396698 .976667956    .000249484 .000667820 -.000964225    114
 1   24.242804576 24.737736641 8.445119781    .000397541 .000325729 .000334232    115
 1   17.096606462 14.612726286 5.272641612    -.000134696 .000083174 .000343560    116
 1   19.859918836 4.826714445 26.025783181    .000081089 .000131716 -.000188471    117
 1   8.643349283 2.482005697 14.734499657    -.001176541 -.001418466 .000256539    118
 1   18.901261818 19.013715123 13.030118031    .000223777 -.000268709 .000417811    119
 1   8.847319670 2.201203517 17.059525442    -.000648440 -.001193586 .000118320    120
 1   12.636456908 5.980674213 14.918997213    -.002582401 -.002066174 -.002339669    121
 1   18.126316549 15.157182442 27.144474903    .000017760 .000103533 .000138174    122
 1   26.945407141 14.259040425 4.639394174    -.000159153 .000534083 .000000103    123
 1   5.916338298 19.278227817 16.448435200    -.000186261 -.000641515 .000765884    124
 1   14.596073814 6.806448188 21.125582826    -.000204437 -.000428094 -.001403308    125
 1   2.651862115 12.299002027 20.903067661    .000220983 -.000033960 -.000138122    126
 1   19.612344870 6.283324993 3.799045244    .000190046 .000328259 .000008837    127
 1   11.229545386 13.977932195 16.383299270    .000036343 -.000939838 -.000355137    128
 1   20.910881134 16.694122596 6.585007397    .000049426 .000111234 .000404997    129
 1   14.983391003 22.265332395 20.922770143    .000259972 -.000244421 .000724959    130
 1   5.050945766 11.062223842 7.171894053    -.000148173 .000724515 -.000330187    131
 1   14.877721858 17.267241681 6.229438113    -.000065933 .000063848 .000495700    132
 1   25.010745314 25.048270754 15.170130553    .000284922 .000041280 .000187101    133
 1   16.897904310 22.758862162 22.488832915    .000275381 .000046120 .000296203    134
 1   5.290196264 23.149075678 7.616872003    .000591485 .001410208 .001261039    135
 1   6.007662537 21.169885274 .189510928    .000033312 .000533662 .000940120    136
 1   9.376928326 2.194856233 4.833861480    .000887920 .001379444 -.004463129    137
 1   2.868472598 18.599015853 27.048203427    -.000056756 .000360396 .000430433    138
 1   6.270504660 15.010624597 11.325116230    -.000051855 .000286352 .000087841    139
 1   12.926636014 15.856206828 3.749742145    -.000149703 .000248066 .000412894    140
 1   9.564643752 24.437355030 25.924044687    .000230479 -.000018336 .000708613    141
 1   26.688476274 .525490862 13.438605002    .000466265 .000132112 .000161516    142
 1   9.170452831 9.713869217 25.621053006    .000123189 .000498162 -.000700673    143
 1   3.918918896 9.044881979 6.935359550    -.000081845 .000722387 -.000532942    144
 1   16.878886005 23.537830794 11.038271111    .000419014 -.000456363 .000316054    145
 1   21.585842907 8.583206596 1.077976457    -.000118160 .000306790 -.000043857    146
 1   1.929745723 21.803004925 5.881225465    .000462398 .001139222 .000728754    147
 1   11.215752145 27.120195648 10.548068750    -.000875632 -.000286587 -.001408320    148
 1   13.704503730 1.925367100 11.972194630    -.002293162 -.001382974 -.001413046    149
 1   7.248840095 1.050294453 8.140389466    .003040384 .005523261 -.003098158    150
 1   .382544614 12.126385700 .636165171    -.000203496 .000367818 -.000085829    151
 1   .116456107 9.151957470 2.437646523    -.000297560 .000491964 -.000168622    152
 1   15.453716664 20.647284201 4.764392864    .000157519 .000121048 .000392754    153
 1   7.992865782 25.624650313 3.624909270    -.000124145 .001108097 .000325352    154
 1   14.092439068 14.484789666 23.456694394    .000264037 -.000372368 -.000078353    155
 1   24.762805102 17.637225739 19.348904182    .000263037 .000001517 -.000059698    156
 1   2.110617499 24.868513309 1.640274209    .000248217 .000576769 .000737887    157
 1   8.800140812 8.389425015 5.406365072    .000240470 .000758756 -.001352400    158
 1   1.314355001 14.086585069 12.487904457    -.000018832 .000191172 -.000029507    159
 1   2.123044240 6.905934112 26.364298107    -.000262341 .000532427 -.000366018    160
 1   4.351266651 20.663293856 17.769712976    -.000265840 -.000438053 .000595214    161
 1   5.740112578 16.337517393 18.484148818    .000116450 -.000412970 .000309554    162
 1   5.073303018 1.252067061 13.666507317    -.000365987 -.001561299 .000536390    163
 1   27.353573212 7.134765276 14.351300854    .000121539 .000041523 .000101682    164
 1   12.839899736 15.129592149 9.600966935    -.000209485 -.000323590 .000340021    165
 1   19.492048757 23.585419893 26.746293076    .000163360 .000079079 .000166639    166
 1   5.872164776 15.321498281 14.986701873    .000088206 -.000093621 .000085006    167
 1   11.108122428 18.689335289 17.932354386    .000313370 -.000561213 .000917802    168
 1   14.655741556 18.334931773 9.854860364    .000147778 -.000414511 .000644125    169
 1   26.632972814 7.247749061 3.038462950    -.000246327 .000456483 -.000118530    170
 1   11.697613230 24.264423248 2.723272879    .000228220 .000223021 .000102818    171
 1   20.636366914 15.346236085 12.102844654    -.000165342 -.000291112 .000226847    172
 1   7.318735846 17.904034894 9.285617708    .000004380 .000569541 .000556513    173
 1   1.724876149 14.415534850 21.343275113    .000193027 -.000047216 -.000023328    174
 1   16.252126204 9.427804926 6.252773853    .000235585 .000038372 .000127893    175
 1   2.372532698 21.089261983 3.616455083    .000259123 .000773326 .000607020    176
 1   18.104430048 13.592494833 8.600060333    -.000130621 -.000273287 .000361258    177
 1   25.784858724 23.321500620 22.578164281    .000031379 .000119768 .000305666    178
 1   11.523795489 18.204580559 7.924647936    .000019778 .000170944 .000754013    179
 1   25.555641810 18.095763401 4.074761889    .000043103 .000305980 .000295510    180
 1   8.258348676 25.298637152 18.923017977    -.000260100 -.000770880 .001512595    181
 1   22.619265775 21.045449020 18.777931563    .000152827 .000100039 .000270632    182
 1   15.414494403 21.759806209 2.753992188    .000104062 .000088567 .000359569    183
 1   21.205877513 26.835842652 3.021728403    .000551174 .000071073 .000120130    184
 1   24.933698175 1.454542400 19.278645505    .000066589 .000137422 .000091050    185
 1   21.924246278 8.358791658 6.179467696    -.000085859 .000222188 .000192504    186
 1   .935236059 23.326820992 26.175813171    .000196948 .000205805 .000550066    187
 1   12.612461384 18.497229629 22.577469989    .000267864 -.000387425 .000464136    188
 1   17.516607405 22.592224228 27.438897443    .000154511 .000120480 .000241106    189
 1   15.071217565 5.413247217 5.746808765    .000360109 .000016086 -.001031052    190
 1   14.119708754 25.659948082 12.393149813    -.000153912 -.000789967 -.000082686    191
 1   10.829094134 3.122236762 22.011010631    .000009560 -.000065155 -.000556566    192
 1   25.776610854 25.266006043 24.054722310    .000117669 .000025305 .000449572    193
 1   21.881552336 .930722270 1.676881143    .000519176 .000030426 .000030932    194
 1   10.222445006 3.447022557 26.740188773    .000377051 .000585755 -.000968210    195
 1   18.049135263 24.738753439 17.490463731    .000072862 -.000088218 .000267645    196
 1   21.347175434 20.630458163 16.938005189    .000283851 -.000051095 .000257577    197
 1   16.373162777 25.463686336 12.333217240    -.000171863 -.000527007 -.000043729    198
 1   3.364511103 26.973583988 16.318917373    -.000088390 -.000041104 .000758721    199
 1   1.257529942 17.968682999 10.224275209    .000215518 .000620822 .000142705    200
 1   3.802090444 16.201877871 26.349324520    -.000090312 .000322548 .000200644    201
 1   16.056724817 5.784522072 19.441218804    -.000681882 -.000602144 -.001499613    202
 1   21.875298341 20.337119487 11.301377975    .000309985 .000091837 .000332061    203
 1   3.838512135 24.832085412 3.384661430    .000237124 .000908263 .000884856    204
 1   18.340873037 5.702659897 12.353426944    -.001501594 -.000545443 -.000673910    205
 1   9.071871057 10.655850780 1.835410867    -.000015807 .000598594 -.000597455    206
 1   26.751780114 5.504849317 21.286379149    -.000057255 .000032553 .000022498    207
 1   26.145240965 7.862321664 18.329584670    .000019213 -.000158611 -.000020102    208
 1   27.263826637 5.306196351 12.966350425    .000341325 .000138151 .000008858    209
 1   12.981181954 8.999468288 25.127408168    .000223036 .000408346 -.000636599    210
 1   4.717503815 9.309331631 22.344172966    .000186398 .000220204 -.000346269    211
 1   24.843993074 22.196844728 26.753062000    .000040060 .000079936 .000230000    212
 1   .172363825 17.888989963 4.700767426    .000021177 .000654648 .000323123    213
 1   23.159094272 16.656653874 20.983840058    .000137812 .000037229 -.000088708    214
 1   13.174768215 25.959481444 18.130419648    -.000022675 -.000517840 .000384660    215
 1   14.192644790 15.407805428 21.247637390    .000301562 -.000558012 -.000078724    216
 1   26.163596401 15.934793788 1.035394152    -.000120215 .000292197 .000078494    217
 1   4.841408450 3.212296074 26.334719685    -.000365681 .001138970 .000382856    218
 1   3.828971245 18.614620357 6.297805406    .000146198 .000923285 .000398795    219
 1   20.308506018 10.659421891 23.755195961    -.000058842 -.000017945 -.000494309    220
 1   9.889136511 22.380903590 27.139980090    .000066972 -.000059506 .000728729    221
 1   11.345376659 26.006122151 25.447317123    .000214894 .000093738 .000202253    222
 1   1.829818645 12.221204828 13.846845617    -.000047034 .000135064 -.000074595    223
 1   9.987305679 8.969175391 16.233528198    -.001051636 -.001181773 -.001139362    224
 1   17.280457119 3.774501959 19.630259579    -.000440126 -.000257978 -.000776218    225
 1   16.602933895 11.437913046 12.977229082    -.000733503 -.001205368 -.000311823    226
 1   25.510433262 14.367461920 2.656893217    -.000171753 .000295743 .000024716    227
 1   6.151021633 5.974060628 .098336380    -.000337789 .001032988 -.000908601    228
 1   13.712328816 12.180969323 23.074474850    .000290127 -.000324491 -.000812786    229
 1   26.743065584 20.202987536 21.586252231    -.000033685 .000133148 .000321202    230
 1   7.636084579 5.667443809 10.332457759    -.001092833 -.000627941 -.001424126    231
 1   22.401229948 19.731424953 13.550796660    .000194940 -.000027256 .000242170    232
 1   4.392333339 12.182549580 2.335617863    -.000164653 .000603127 -.000134219    233
 1   .902996184 18.714269593 21.252393588    -.000218681 .000026640 .000341996    234
 1   21.375510352 16.075431828 14.154795702    -.000065700 -.000194467 .000132290    235
 1   1.753730282 27.086551617 18.112710655    -.000021476 -.000055117 .000779569    236
 1   17.075003967 24.923955836 23.631213432    .000223468 .000150582 .000074296    237
 1   20.131421241 24.014082039 1.332795019    .000298044 .000008743 .000145018    238
 1   14.337179551 6.178008099 11.462175881    -.002487435 -.002231370 -.001257782    239
 1   22.237732131 25.195336881 17.896930872    .000138619 .000137287 .000163668    240
 1   14.708339267 9.989732978 23.663715232    .000231953 -.000215921 -.000759975    241
 1   19.545264649 7.888732213 5.401308406    -.000043832 .000204667 .000135450    242
 1   5.421253870 18.719888158 23.649752471    -.000119896 -.000149645 .000467409    243
 1   24.885135084 2.725843959 .937402308    .000020265 .000201206 -.000063279    244
 1   12.079576344 12.875059601 9.642071401    -.000413988 -.000335459 -.000094711    245
 1   6.922871918 24.930001028 7.482114065    .000798493 .001417846 .001853111    246
 1   19.079689519 5.058216290 7.197908827    .000024961 .000067779 -.000006565    247
 1   12.153700070 3.749356594 15.932406653    -.001370684 -.001695188 -.002061849    248
 1   22.534889685 9.883273603 11.647893868    -.000240798 -.000177300 .000182101    249
 1   .864886881 19.547555566 15.828433777    -.000466975 .000117320 -.000025521    250
 1   16.057521229 14.160239722 26.666595715    -.000013129 .000257982 .000071918    251
 1   3.091833992 1.130186842 3.694654465    -.000210595 .000878194 .000340170    252
 1   5.127064772 13.169559182 .255107232    -.000109060 .000491249 -.000106470    253
 1   5.750085846 23.511683190 21.388002047    -.000070050 -.000458484 .001244221    254
 1   11.857920309 6.842752651 25.469941229    .000311429 .000487978 -.000985616    255
 1   .974866761 15.778391399 5.241222159    -.000114594 .000585930 .000080392    256
 1   24.593275894 .444941156 8.024281762    .000101844 .000473075 .000346898    257
 1   24.659181651 5.256201056 7.754958355    -.000055979 .000337060 .000284172    258
 1   15.385814456 27.659692119 9.568398339    .000096406 -.000697548 -.000373402    259
 1   23.371819292 18.156487280 1.452381819    -.000045077 .000075977 .000240688    260
 1   21.179797483 19.976980507 20.335578978    .000135360 .000104403 .000242404    261
 1   25.498173852 16.666835122 24.557479595    -.000066386 .000059644 .000007749    262
 1   24.916432024 1.265614601 26.658699361    .000127143 .000058858 .000028162    263
 1   19.949932966 16.887121713 24.129591369    .000064930 .000008309 .000155627    264
 1   12.853282898 18.727467077 1.412646911    -.000225479 .000211755 .000567666    265
 1   17.495014175 21.262178179 6.155373443    .000422325 -.000107641 .000226340    266
 1   7.565875490 26.808150128 10.501342170    .002870883 -.004451509 .007351119    267
 1   9.354714773 25.037999934 20.973560025    .000049739 -.000467717 .001257989    268
 1   6.935912312 19.905688613 8.185299431    .000188089 .000830216 .000861789    269
 1   5.440875574 21.473663252 9.302514466    .000384894 .000953054 .000962677    270
 1   16.414436851 3.706223282 9.430618646    -.000274783 -.000645296 -.000328175    271
 1   4.938202757 10.911609207 11.765654199    -.000204854 .000454997 -.000306662    272
 1   21.522693199 11.884785666 20.495150404    -.000088753 -.000300847 -.000310040    273
 1   15.938895655 21.516963190 11.683818352    .000547200 -.000501020 .000502815    274
 1   .014229814 9.816129301 .155633451    -.000231508 .000365095 -.000194459    275
 1   22.310395989 3.776157403 5.540493301    .000166595 .000270330 .000237090    276
 1   17.825824329 7.239696083 19.136695896    -.000592360 -.000674331 -.001451203    277
 1   4.852617178 17.161640151 21.928042055    .000126503 -.000157885 .000229739    278
 1   8.903188810 22.910794159 10.530825874    .000907595 -.000533635 .001268686    279
 1   20.246724796 24.749217079 16.337388559    .000103957 .000064727 .000327790    280
 1   9.635176550 9.667171070 7.203010717    -.000168200 .000304267 -.000937104    281
 1   26.757956770 .867176194 22.271985038    .000021916 -.000072175 .000313841    282
 1   2.044293932 4.991097711 4.279782166    -.000164345 .000921618 -.000419447    283
 1   20.951507051 1.105120520 26.080160936    .000359608 .000099205 -.000069947    284
 1   2.217569299 6.111534679 17.486741904    .000120537 -.000181303 .000129593    285
 1   22.774043322 7.705858808 14.851035276    -.000278952 -.000279344 -.000075189    286
 1   15.540403045 12.649086418 11.245654519    -.000640098 -.000941247 -.000131873    287
 1   4.271344653 14.854104351 24.352670996    .000091994 .000119859 .000245095    288
 1   1.440148686 10.293969857 24.325628431    -.000060374 .000228907 -.000233127    289
 1   21.455920283 25.379189471 21.624081687    .000099461 .000192903 .000060990    290
 1   10.527364876 11.256115500 21.623655985    .000621076 -.000526944 -.000733477    291
 1   3.874553475 4.352398902 16.520918981    .000031964 -.000429082 .000436522    292
 1   2.787463190 20.455515196 21.509745878    -.000159842 -.000101533 .000464039    293
 1   23.505573199 25.688335326 27.246982825    .000192102 .000002336 .000230724    294
 1   20.644858200 .980852462 19.468844276    -.000222215 .000099261 -.000232012    295
 1   .060277473 14.029944556 23.051329344    .000040403 .000069159 -.000101457    296
 1   17.893964899 17.600365412 21.291965023    .000268761 -.000171369 .000218725    297
 1   14.274277061 15.040553750 .289375371    -.000074048 .000178253 .000251521    298
 1   .511430832 8.456922206 23.340366171    -.000065943 .000183067 -.000154372    299
 1   4.709109498 27.022537293 .473098329    .000114321 .000786860 .001246371    300
 1   19.250972413 25.338855308 8.375541033    .000728716 .000108131 .000287943    301
 1   14.639775873 14.655352034 2.530313511    -.000193076 .000186940 .000323348    302
 1   7.235970569 11.088633515 25.669248691    .000105698 .000476323 -.000322159    303
 1   17.214331992 4.415104571 1.667816359    .000791939 .000423999 -.000541326    304
 1   19.908261682 7.070820450 22.744274667    -.000155795 -.000068400 -.000347137    305
 1   16.799200021 23.894793548 15.586124456    .000245903 -.000261905 .000366026    306
 1   4.093820144 9.934939131 2.032182545    -.000188890 .000703511 -.000375914    307
 1   1.584616124 20.218250580 9.470053743    .000414670 .000771332 .000394363    308
 1   9.206408265 .968638362 6.832689771    .001868331 .001090888 -.004382313    309
 1   25.017551278 1.097584264 5.854194205    .000182407 .000435012 .000296000    310
 1   20.172698973 16.952775524 18.279175346    .000287857 .000023122 .000274177    311
 1   .971036730 3.011774743 27.591666412    -.000354330 .000401811 .000020414    312
 1   3.122081838 10.993303653 22.817359681    .000106780 .000086133 -.000150592    313
 1   23.833395070 22.184201811 22.996408754    .000014035 .000120194 .000206547    314
 1   1.300908173 1.690506264 18.619852886    .000026237 -.000060424 .000570032    315
 1   14.870665348 27.514982308 17.581766192    -.000245958 -.000533845 -.000223501    316
 1   13.224348859 21.481840066 5.403797402    .000257990 .000154802 .000598547    317
 1   25.694862779 18.944084972 11.962933604    .000300103 .000421471 .000023144    318
 1   24.653107152 18.462053191 9.806610620    .000215557 .000410329 .000034169    319
 1   4.266487196 24.809812171 12.262223666    .001188983 .000977251 .000552285    320
 1   7.722280071 24.404808947 13.545472604    .000586489 -.002894983 .002712152    321
 1   12.559429722 17.691785591 24.868258738    .000113640 -.000213156 .000443978    322
 1   2.081319012 9.386462093 5.571064664    -.000188049 .000741103 -.000317475    323
 1   20.314194556 13.020378127 12.312504415    -.000235734 -.000381031 .000061782    324
 1   9.866881415 .783034899 19.919263562    -.000219604 -.000574589 .000301193    325
 1   23.483614936 22.609117001 8.990675652    .000416825 .000279186 .000362972    326
 1   8.253061345 26.557876259 12.735318012    .000725000 -.003780342 .004401194    327
 1   23.531233591 6.143276795 11.563372021    -.000138974 -.000107644 .000072228    328
 1   14.681179230 8.736567656 4.576166799    .000621186 .000213439 -.000025660    329
 1   21.529450476 22.387096674 7.788583765    .000494477 .000076201 .000331551    330
 1   23.762005127 16.248226658 13.958229366    .000011066 -.000027707 -.000118190    331
 1   3.697623223 5.093846657 12.505493945    .000247404 .000185582 -.000268305    332
 1   22.576558297 18.768367853 21.833617980    .000076780 -.000000481 .000133948    333
 1   .666748664 3.807682147 21.821824750    -.000135325 .000066211 .000210672    334
 1   11.015962119 2.354157006 14.361355470    -.002128311 -.001913104 -.001615566    335
 1   26.309387377 21.152795849 11.765864320    .000549256 .000459930 .000159015    336
 1   19.567162698 20.432004739 11.226706179    .000307897 -.000118586 .000473844    337
 1   24.823377736 5.170635083 22.633001153    -.000164233 .000036238 -.000159561    338
 1   19.981594815 4.372058035 11.084555511    -.000795227 -.000195473 -.000004686    339
 1   19.054779929 19.729041207 7.141190518    .000283514 -.000078667 .000460394    340
 1   8.854229746 13.117152428 13.446540396    -.000292442 -.000407970 -.000203114    341
 1   11.348219621 11.058735388 1.935669807    -.000077782 .000737781 -.000632647    342
 1   18.750394391 19.185246011 27.096625925    .000003497 .000033940 .000331058    343